<?xml version="1.0" encoding="UTF-8"?>

<!-- generated on 2024-08-18 22:12:53 by Eclipse SUMO GUI Version 1.20.0
<configuration xmlns:xsi="http://www.w3.org/2001/XMLSchema-instance" xsi:noNamespaceSchemaLocation="http://sumo.dlr.de/xsd/sumoConfiguration.xsd">

    <input>
        <net-file value="C:\Users\ScottChen\Desktop\Traffics\rivadavia square_20240816\source\rs.net.xml"/>
        <route-files value="C:\Users\ScottChen\Desktop\Traffics\rivadavia square_20240816\source\rs.rou.xml"/>
        <additional-files value="C:\Users\ScottChen\Desktop\Traffics\rivadavia square_20240816\optimal.add.xml"/>
    </input>

    <output>
        <fcd-output value="C:\Users\ScottChen\Desktop\Traffics\rivadavia square_20240816\optimal.fcd.xml"/>
        <tripinfo-output value="C:\Users\ScottChen\Desktop\Traffics\rivadavia square_20240816\optimal.tripinfo.xml"/>
    </output>

    <time>
        <begin value="0"/>
        <end value="500"/>
    </time>

</configuration>
-->

<tripinfos xmlns:xsi="http://www.w3.org/2001/XMLSchema-instance" xsi:noNamespaceSchemaLocation="http://sumo.dlr.de/xsd/tripinfo_file.xsd">
    <tripinfo id="20" depart="20.00" departLane="75109400#5_0" departPos="5.10" departSpeed="0.00" departDelay="0.00" arrival="79.00" arrivalLane="-265322458#5_0" arrivalPos="94.15" arrivalSpeed="10.40" duration="59.00" routeLength="428.56" waitingTime="12.00" waitingCount="1" stopTime="0.00" timeLoss="23.10" rerouteNo="0" devices="tripinfo_20 fcd_20" vType="DEFAULT_VEHTYPE" speedFactor="0.94" vaporized=""/>
    <tripinfo id="41" depart="41.00" departLane="74516082#1_0" departPos="5.10" departSpeed="0.00" departDelay="0.00" arrival="82.00" arrivalLane="75739328#2_0" arrivalPos="136.71" arrivalSpeed="14.19" duration="41.00" routeLength="258.21" waitingTime="14.00" waitingCount="1" stopTime="0.00" timeLoss="22.83" rerouteNo="0" devices="tripinfo_41 fcd_41" vType="DEFAULT_VEHTYPE" speedFactor="1.10" vaporized=""/>
    <tripinfo id="28" depart="28.00" departLane="270244026#1_0" departPos="5.10" departSpeed="0.00" departDelay="0.00" arrival="111.00" arrivalLane="75109400#7_0" arrivalPos="138.65" arrivalSpeed="11.86" duration="83.00" routeLength="540.72" waitingTime="21.00" waitingCount="2" stopTime="0.00" timeLoss="37.67" rerouteNo="0" devices="tripinfo_28 fcd_28" vType="DEFAULT_VEHTYPE" speedFactor="0.87" vaporized=""/>
    <tripinfo id="83" depart="83.00" departLane="27052069#1_0" departPos="5.10" departSpeed="0.00" departDelay="0.00" arrival="111.00" arrivalLane="75042823#3_0" arrivalPos="120.98" arrivalSpeed="22.82" duration="28.00" routeLength="279.01" waitingTime="0.00" waitingCount="0" stopTime="0.00" timeLoss="9.81" rerouteNo="0" devices="tripinfo_83 fcd_83" vType="DEFAULT_VEHTYPE" speedFactor="0.98" vaporized=""/>
    <tripinfo id="24" depart="24.00" departLane="74709049#2_0" departPos="5.10" departSpeed="0.00" departDelay="0.00" arrival="115.00" arrivalLane="27082629#2_0" arrivalPos="122.77" arrivalSpeed="4.69" duration="91.00" routeLength="443.56" waitingTime="16.00" waitingCount="1" stopTime="0.00" timeLoss="30.29" rerouteNo="0" devices="tripinfo_24 fcd_24" vType="DEFAULT_VEHTYPE" speedFactor="1.01" vaporized=""/>
    <tripinfo id="3" depart="3.00" departLane="75415229#1_0" departPos="5.10" departSpeed="0.00" departDelay="0.00" arrival="117.00" arrivalLane="142497496#1_0" arrivalPos="52.32" arrivalSpeed="13.16" duration="114.00" routeLength="775.47" waitingTime="18.00" waitingCount="4" stopTime="0.00" timeLoss="48.54" rerouteNo="0" devices="tripinfo_3 fcd_3" vType="DEFAULT_VEHTYPE" speedFactor="1.01" vaporized=""/>
    <tripinfo id="53" depart="53.00" departLane="160464618#0_0" departPos="5.10" departSpeed="0.00" departDelay="0.00" arrival="117.00" arrivalLane="446372799#0_0" arrivalPos="93.87" arrivalSpeed="6.49" duration="64.00" routeLength="381.39" waitingTime="7.00" waitingCount="1" stopTime="0.00" timeLoss="16.16" rerouteNo="0" devices="tripinfo_53 fcd_53" vType="DEFAULT_VEHTYPE" speedFactor="0.88" vaporized=""/>
    <tripinfo id="63" depart="63.00" departLane="-265322458#2_0" departPos="5.10" departSpeed="0.00" departDelay="0.00" arrival="121.00" arrivalLane="75739347#4_0" arrivalPos="216.58" arrivalSpeed="13.24" duration="58.00" routeLength="542.47" waitingTime="3.00" waitingCount="1" stopTime="0.00" timeLoss="12.81" rerouteNo="0" devices="tripinfo_63 fcd_63" vType="DEFAULT_VEHTYPE" speedFactor="1.02" vaporized=""/>
    <tripinfo id="31" depart="31.00" departLane="74516072#0_0" departPos="5.10" departSpeed="0.00" departDelay="0.00" arrival="125.00" arrivalLane="75042825_0" arrivalPos="128.08" arrivalSpeed="14.87" duration="94.00" routeLength="781.35" waitingTime="18.00" waitingCount="2" stopTime="0.00" timeLoss="43.16" rerouteNo="0" devices="tripinfo_31 fcd_31" vType="DEFAULT_VEHTYPE" speedFactor="1.13" vaporized=""/>
    <tripinfo id="7" depart="7.00" departLane="75042822#1_0" departPos="5.10" departSpeed="0.00" departDelay="0.00" arrival="136.00" arrivalLane="74516072#0_0" arrivalPos="132.52" arrivalSpeed="11.04" duration="129.00" routeLength="1019.40" waitingTime="21.00" waitingCount="2" stopTime="0.00" timeLoss="41.13" rerouteNo="0" devices="tripinfo_7 fcd_7" vType="DEFAULT_VEHTYPE" speedFactor="0.83" vaporized=""/>
    <tripinfo id="77" depart="77.00" departLane="160464620#0_0" departPos="5.10" departSpeed="0.00" departDelay="0.00" arrival="138.00" arrivalLane="27052071#2_0" arrivalPos="101.69" arrivalSpeed="13.96" duration="61.00" routeLength="461.27" waitingTime="2.00" waitingCount="1" stopTime="0.00" timeLoss="13.41" rerouteNo="0" devices="tripinfo_77 fcd_77" vType="DEFAULT_VEHTYPE" speedFactor="1.02" vaporized=""/>
    <tripinfo id="46" depart="46.00" departLane="75201454#1_0" departPos="5.10" departSpeed="0.00" departDelay="0.00" arrival="151.00" arrivalLane="28408742#5_0" arrivalPos="81.05" arrivalSpeed="11.95" duration="105.00" routeLength="598.19" waitingTime="35.00" waitingCount="3" stopTime="0.00" timeLoss="54.33" rerouteNo="0" devices="tripinfo_46 fcd_46" vType="DEFAULT_VEHTYPE" speedFactor="1.09" vaporized=""/>
    <tripinfo id="127" depart="127.00" departLane="960745690#1_0" departPos="5.10" departSpeed="0.00" departDelay="0.00" arrival="151.00" arrivalLane="960745690#2_0" arrivalPos="76.13" arrivalSpeed="10.59" duration="24.00" routeLength="221.37" waitingTime="0.00" waitingCount="0" stopTime="0.00" timeLoss="3.69" rerouteNo="0" devices="tripinfo_127 fcd_127" vType="DEFAULT_VEHTYPE" speedFactor="1.01" vaporized=""/>
    <tripinfo id="137" depart="137.00" departLane="265322458#0_0" departPos="5.10" departSpeed="0.00" departDelay="0.00" arrival="151.00" arrivalLane="265322458#1_0" arrivalPos="92.49" arrivalSpeed="10.36" duration="14.00" routeLength="114.64" waitingTime="0.00" waitingCount="0" stopTime="0.00" timeLoss="3.13" rerouteNo="0" devices="tripinfo_137 fcd_137" vType="DEFAULT_VEHTYPE" speedFactor="1.02" vaporized=""/>
    <tripinfo id="102" depart="102.00" departLane="74371262#1_0" departPos="5.10" departSpeed="0.00" departDelay="0.00" arrival="162.00" arrivalLane="27052071#0_0" arrivalPos="62.30" arrivalSpeed="13.53" duration="60.00" routeLength="335.02" waitingTime="18.00" waitingCount="2" stopTime="0.00" timeLoss="39.00" rerouteNo="0" devices="tripinfo_102 fcd_102" vType="DEFAULT_VEHTYPE" speedFactor="1.02" vaporized=""/>
    <tripinfo id="21" depart="21.00" departLane="270244026#8_0" departPos="5.10" departSpeed="0.00" departDelay="0.00" arrival="163.00" arrivalLane="27056027#1_0" arrivalPos="131.19" arrivalSpeed="11.96" duration="142.00" routeLength="1140.89" waitingTime="19.00" waitingCount="2" stopTime="0.00" timeLoss="62.05" rerouteNo="0" devices="tripinfo_21 fcd_21" vType="DEFAULT_VEHTYPE" speedFactor="0.94" vaporized=""/>
    <tripinfo id="33" depart="33.00" departLane="270244026#8_0" departPos="5.10" departSpeed="0.00" departDelay="0.00" arrival="164.00" arrivalLane="-265322458#3_0" arrivalPos="114.50" arrivalSpeed="12.32" duration="131.00" routeLength="1085.76" waitingTime="21.00" waitingCount="3" stopTime="0.00" timeLoss="63.93" rerouteNo="0" devices="tripinfo_33 fcd_33" vType="DEFAULT_VEHTYPE" speedFactor="1.18" vaporized=""/>
    <tripinfo id="152" depart="152.00" departLane="265322458#3_0" departPos="5.10" departSpeed="0.00" departDelay="0.00" arrival="165.00" arrivalLane="265322458#3_0" arrivalPos="114.50" arrivalSpeed="11.05" duration="13.00" routeLength="109.40" waitingTime="0.00" waitingCount="0" stopTime="0.00" timeLoss="3.19" rerouteNo="0" devices="tripinfo_152 fcd_152" vType="DEFAULT_VEHTYPE" speedFactor="1.01" vaporized=""/>
    <tripinfo id="40" depart="40.00" departLane="74516072#0_0" departPos="5.10" departSpeed="0.00" departDelay="0.00" arrival="168.00" arrivalLane="27055797_0" arrivalPos="247.28" arrivalSpeed="15.76" duration="128.00" routeLength="1139.07" waitingTime="25.00" waitingCount="3" stopTime="0.00" timeLoss="56.98" rerouteNo="0" devices="tripinfo_40 fcd_40" vType="DEFAULT_VEHTYPE" speedFactor="1.18" vaporized=""/>
    <tripinfo id="47" depart="47.00" departLane="-446372799#1_0" departPos="5.10" departSpeed="0.00" departDelay="0.00" arrival="169.00" arrivalLane="27083324#0_0" arrivalPos="115.75" arrivalSpeed="10.70" duration="122.00" routeLength="1226.54" waitingTime="4.00" waitingCount="1" stopTime="0.00" timeLoss="25.43" rerouteNo="0" devices="tripinfo_47 fcd_47" vType="DEFAULT_VEHTYPE" speedFactor="1.04" vaporized=""/>
    <tripinfo id="32" depart="32.00" departLane="75251438#0_0" departPos="5.10" departSpeed="0.00" departDelay="0.00" arrival="170.00" arrivalLane="75201453_1" arrivalPos="116.55" arrivalSpeed="7.68" duration="138.00" routeLength="1005.77" waitingTime="17.00" waitingCount="3" stopTime="0.00" timeLoss="45.28" rerouteNo="0" devices="tripinfo_32 fcd_32" vType="DEFAULT_VEHTYPE" speedFactor="0.93" vaporized=""/>
    <tripinfo id="35" depart="35.00" departLane="270244026#4_0" departPos="5.10" departSpeed="0.00" departDelay="0.00" arrival="172.00" arrivalLane="75744490#1_0" arrivalPos="104.02" arrivalSpeed="7.56" duration="137.00" routeLength="1236.04" waitingTime="14.00" waitingCount="2" stopTime="0.00" timeLoss="55.72" rerouteNo="0" devices="tripinfo_35 fcd_35" vType="DEFAULT_VEHTYPE" speedFactor="1.01" vaporized=""/>
    <tripinfo id="79" depart="80.00" departLane="270244026#8_0" departPos="5.10" departSpeed="0.00" departDelay="1.00" arrival="176.00" arrivalLane="27052071#2_0" arrivalPos="101.69" arrivalSpeed="12.95" duration="96.00" routeLength="606.07" waitingTime="30.00" waitingCount="2" stopTime="0.00" timeLoss="58.69" rerouteNo="0" devices="tripinfo_79 fcd_79" vType="DEFAULT_VEHTYPE" speedFactor="0.97" vaporized=""/>
    <tripinfo id="44" depart="44.00" departLane="142496491_0" departPos="5.10" departSpeed="0.00" departDelay="0.00" arrival="177.00" arrivalLane="-265322458#5_0" arrivalPos="94.15" arrivalSpeed="10.95" duration="133.00" routeLength="909.08" waitingTime="34.00" waitingCount="4" stopTime="0.00" timeLoss="66.38" rerouteNo="0" devices="tripinfo_44 fcd_44" vType="DEFAULT_VEHTYPE" speedFactor="1.03" vaporized=""/>
    <tripinfo id="14" depart="14.00" departLane="75251438#1_0" departPos="5.10" departSpeed="0.00" departDelay="0.00" arrival="178.00" arrivalLane="74516082#4_0" arrivalPos="208.53" arrivalSpeed="13.37" duration="164.00" routeLength="1150.51" waitingTime="47.00" waitingCount="4" stopTime="0.00" timeLoss="76.63" rerouteNo="0" devices="tripinfo_14 fcd_14" vType="DEFAULT_VEHTYPE" speedFactor="1.03" vaporized=""/>
    <tripinfo id="8" depart="8.00" departLane="270244026#6_0" departPos="5.10" departSpeed="0.00" departDelay="0.00" arrival="181.00" arrivalLane="74516082#3_0" arrivalPos="174.26" arrivalSpeed="13.61" duration="173.00" routeLength="1402.46" waitingTime="35.00" waitingCount="4" stopTime="0.00" timeLoss="78.10" rerouteNo="0" devices="tripinfo_8 fcd_8" vType="DEFAULT_VEHTYPE" speedFactor="1.05" vaporized=""/>
    <tripinfo id="17" depart="17.00" departLane="27083324#0_0" departPos="5.10" departSpeed="0.00" departDelay="0.00" arrival="181.00" arrivalLane="74516072#0_0" arrivalPos="132.52" arrivalSpeed="13.17" duration="164.00" routeLength="1052.97" waitingTime="32.00" waitingCount="5" stopTime="0.00" timeLoss="72.76" rerouteNo="0" devices="tripinfo_17 fcd_17" vType="DEFAULT_VEHTYPE" speedFactor="0.99" vaporized=""/>
    <tripinfo id="22" depart="22.00" departLane="1081874540#0_0" departPos="5.10" departSpeed="0.00" departDelay="0.00" arrival="181.00" arrivalLane="27053786#3_0" arrivalPos="66.06" arrivalSpeed="11.87" duration="159.00" routeLength="1033.79" waitingTime="47.00" waitingCount="4" stopTime="0.00" timeLoss="77.82" rerouteNo="0" devices="tripinfo_22 fcd_22" vType="DEFAULT_VEHTYPE" speedFactor="1.16" vaporized=""/>
    <tripinfo id="124" depart="124.00" departLane="75042823#3_0" departPos="5.10" departSpeed="0.00" departDelay="0.00" arrival="181.00" arrivalLane="27082600#0_0" arrivalPos="67.29" arrivalSpeed="12.37" duration="57.00" routeLength="450.95" waitingTime="8.00" waitingCount="1" stopTime="0.00" timeLoss="24.77" rerouteNo="0" devices="tripinfo_124 fcd_124" vType="DEFAULT_VEHTYPE" speedFactor="0.93" vaporized=""/>
    <tripinfo id="23" depart="23.00" departLane="142497496#0_0" departPos="5.10" departSpeed="0.00" departDelay="0.00" arrival="182.00" arrivalLane="27056027#0_0" arrivalPos="122.47" arrivalSpeed="13.04" duration="159.00" routeLength="1010.44" waitingTime="40.00" waitingCount="4" stopTime="0.00" timeLoss="78.18" rerouteNo="0" devices="tripinfo_23 fcd_23" vType="DEFAULT_VEHTYPE" speedFactor="1.02" vaporized=""/>
    <tripinfo id="154" depart="154.00" departLane="75201454#2_0" departPos="5.10" departSpeed="0.00" departDelay="0.00" arrival="189.00" arrivalLane="75356673#1_0" arrivalPos="136.66" arrivalSpeed="10.88" duration="35.00" routeLength="263.10" waitingTime="4.00" waitingCount="1" stopTime="0.00" timeLoss="11.15" rerouteNo="0" devices="tripinfo_154 fcd_154" vType="DEFAULT_VEHTYPE" speedFactor="1.02" vaporized=""/>
    <tripinfo id="70" depart="70.00" departLane="73255201_0" departPos="5.10" departSpeed="0.00" departDelay="0.00" arrival="190.00" arrivalLane="74516072#0_0" arrivalPos="132.52" arrivalSpeed="11.58" duration="120.00" routeLength="862.62" waitingTime="5.00" waitingCount="1" stopTime="0.00" timeLoss="24.21" rerouteNo="0" devices="tripinfo_70 fcd_70" vType="DEFAULT_VEHTYPE" speedFactor="0.88" vaporized=""/>
    <tripinfo id="36" depart="36.00" departLane="75356673#0_0" departPos="5.10" departSpeed="0.00" departDelay="0.00" arrival="191.00" arrivalLane="27082604#3_1" arrivalPos="59.54" arrivalSpeed="6.27" duration="155.00" routeLength="941.60" waitingTime="37.00" waitingCount="5" stopTime="0.00" timeLoss="79.57" rerouteNo="0" devices="tripinfo_36 fcd_36" vType="DEFAULT_VEHTYPE" speedFactor="1.17" vaporized=""/>
    <tripinfo id="38" depart="38.00" departLane="75739345#3_0" departPos="5.10" departSpeed="0.00" departDelay="0.00" arrival="192.00" arrivalLane="73255164#1_0" arrivalPos="10.90" arrivalSpeed="7.76" duration="154.00" routeLength="1080.46" waitingTime="34.00" waitingCount="4" stopTime="0.00" timeLoss="82.86" rerouteNo="0" devices="tripinfo_38 fcd_38" vType="DEFAULT_VEHTYPE" speedFactor="1.02" vaporized=""/>
    <tripinfo id="159" depart="159.00" departLane="265322458#3_0" departPos="5.10" departSpeed="0.00" departDelay="0.00" arrival="192.00" arrivalLane="75739347#4_0" arrivalPos="216.58" arrivalSpeed="12.28" duration="33.00" routeLength="338.56" waitingTime="0.00" waitingCount="0" stopTime="0.00" timeLoss="4.19" rerouteNo="0" devices="tripinfo_159 fcd_159" vType="DEFAULT_VEHTYPE" speedFactor="0.94" vaporized=""/>
    <tripinfo id="9" depart="9.00" departLane="75201454#3_0" departPos="5.10" departSpeed="0.00" departDelay="0.00" arrival="193.00" arrivalLane="-160464618#1_0" arrivalPos="40.95" arrivalSpeed="8.82" duration="184.00" routeLength="1299.74" waitingTime="22.00" waitingCount="3" stopTime="0.00" timeLoss="51.92" rerouteNo="0" devices="tripinfo_9 fcd_9" vType="DEFAULT_VEHTYPE" speedFactor="0.89" vaporized=""/>
    <tripinfo id="134" depart="134.00" departLane="75042822#2_0" departPos="5.10" departSpeed="0.00" departDelay="0.00" arrival="193.00" arrivalLane="-160464618#1_1" arrivalPos="40.95" arrivalSpeed="10.13" duration="59.00" routeLength="299.90" waitingTime="9.00" waitingCount="1" stopTime="0.00" timeLoss="21.65" rerouteNo="0" devices="tripinfo_134 fcd_134" vType="DEFAULT_VEHTYPE" speedFactor="0.94" vaporized=""/>
    <tripinfo id="39" depart="39.00" departLane="27053786#1_0" departPos="5.10" departSpeed="0.00" departDelay="0.00" arrival="195.00" arrivalLane="27053791#1_0" arrivalPos="69.85" arrivalSpeed="12.31" duration="156.00" routeLength="878.96" waitingTime="26.00" waitingCount="4" stopTime="0.00" timeLoss="61.73" rerouteNo="0" devices="tripinfo_39 fcd_39" vType="DEFAULT_VEHTYPE" speedFactor="0.97" vaporized=""/>
    <tripinfo id="73" depart="73.00" departLane="74516068#0_0" departPos="5.10" departSpeed="0.00" departDelay="0.00" arrival="195.00" arrivalLane="75109400#8_0" arrivalPos="114.60" arrivalSpeed="10.16" duration="122.00" routeLength="1077.25" waitingTime="7.00" waitingCount="1" stopTime="0.00" timeLoss="35.59" rerouteNo="0" devices="tripinfo_73 fcd_73" vType="DEFAULT_VEHTYPE" speedFactor="0.91" vaporized=""/>
    <tripinfo id="66" depart="67.00" departLane="75415229#0_0" departPos="5.10" departSpeed="0.00" departDelay="1.00" arrival="199.00" arrivalLane="75744490#1_0" arrivalPos="104.02" arrivalSpeed="15.02" duration="132.00" routeLength="897.38" waitingTime="38.00" waitingCount="3" stopTime="0.00" timeLoss="85.35" rerouteNo="0" devices="tripinfo_66 fcd_66" vType="DEFAULT_VEHTYPE" speedFactor="1.12" vaporized=""/>
    <tripinfo id="16" depart="16.00" departLane="74516068#0_0" departPos="5.10" departSpeed="0.00" departDelay="0.00" arrival="200.00" arrivalLane="960745688#2_1" arrivalPos="71.01" arrivalSpeed="11.22" duration="184.00" routeLength="1606.62" waitingTime="41.00" waitingCount="4" stopTime="0.00" timeLoss="74.89" rerouteNo="0" devices="tripinfo_16 fcd_16" vType="DEFAULT_VEHTYPE" speedFactor="1.12" vaporized=""/>
    <tripinfo id="51" depart="51.00" departLane="75042826_0" departPos="5.10" departSpeed="0.00" departDelay="0.00" arrival="200.00" arrivalLane="74516068#1_0" arrivalPos="128.99" arrivalSpeed="12.71" duration="149.00" routeLength="915.66" waitingTime="34.00" waitingCount="5" stopTime="0.00" timeLoss="70.26" rerouteNo="0" devices="tripinfo_51 fcd_51" vType="DEFAULT_VEHTYPE" speedFactor="1.00" vaporized=""/>
    <tripinfo id="6" depart="6.00" departLane="-265322458#3_0" departPos="5.10" departSpeed="0.00" departDelay="0.00" arrival="204.00" arrivalLane="27052069#0_0" arrivalPos="54.66" arrivalSpeed="10.49" duration="198.00" routeLength="1121.58" waitingTime="41.00" waitingCount="5" stopTime="0.00" timeLoss="73.67" rerouteNo="0" devices="tripinfo_6 fcd_6" vType="DEFAULT_VEHTYPE" speedFactor="1.03" vaporized=""/>
    <tripinfo id="19" depart="19.00" departLane="75251438#4_0" departPos="5.10" departSpeed="0.00" departDelay="0.00" arrival="204.00" arrivalLane="74516082#2_0" arrivalPos="135.00" arrivalSpeed="7.47" duration="185.00" routeLength="1010.65" waitingTime="50.00" waitingCount="6" stopTime="0.00" timeLoss="92.91" rerouteNo="0" devices="tripinfo_19 fcd_19" vType="DEFAULT_VEHTYPE" speedFactor="0.88" vaporized=""/>
    <tripinfo id="52" depart="52.00" departLane="27053786#2_0" departPos="5.10" departSpeed="0.00" departDelay="0.00" arrival="204.00" arrivalLane="74724938#3_0" arrivalPos="134.22" arrivalSpeed="9.78" duration="152.00" routeLength="826.80" waitingTime="45.00" waitingCount="4" stopTime="0.00" timeLoss="69.25" rerouteNo="0" devices="tripinfo_52 fcd_52" vType="DEFAULT_VEHTYPE" speedFactor="0.90" vaporized=""/>
    <tripinfo id="167" depart="168.00" departLane="75356673#0_0" departPos="5.10" departSpeed="0.00" departDelay="1.00" arrival="205.00" arrivalLane="75356673#1_0" arrivalPos="136.66" arrivalSpeed="10.54" duration="37.00" routeLength="273.10" waitingTime="3.00" waitingCount="1" stopTime="0.00" timeLoss="10.54" rerouteNo="0" devices="tripinfo_167 fcd_167" vType="DEFAULT_VEHTYPE" speedFactor="0.96" vaporized=""/>
    <tripinfo id="10" depart="12.00" departLane="75201454#3_0" departPos="5.10" departSpeed="0.00" departDelay="2.00" arrival="206.00" arrivalLane="75096252#0_0" arrivalPos="124.85" arrivalSpeed="12.36" duration="194.00" routeLength="1370.62" waitingTime="35.00" waitingCount="4" stopTime="0.00" timeLoss="76.04" rerouteNo="0" devices="tripinfo_10 fcd_10" vType="DEFAULT_VEHTYPE" speedFactor="0.94" vaporized=""/>
    <tripinfo id="34" depart="34.00" departLane="27082604#2_0" departPos="5.10" departSpeed="0.00" departDelay="0.00" arrival="207.00" arrivalLane="27055797_0" arrivalPos="247.28" arrivalSpeed="14.80" duration="173.00" routeLength="1322.26" waitingTime="35.00" waitingCount="6" stopTime="0.00" timeLoss="80.52" rerouteNo="0" devices="tripinfo_34 fcd_34" vType="DEFAULT_VEHTYPE" speedFactor="1.15" vaporized=""/>
    <tripinfo id="61" depart="61.00" departLane="75193811#2_0" departPos="5.10" departSpeed="0.00" departDelay="0.00" arrival="212.00" arrivalLane="74516068#0_0" arrivalPos="123.52" arrivalSpeed="11.60" duration="151.00" routeLength="914.27" waitingTime="37.00" waitingCount="4" stopTime="0.00" timeLoss="61.43" rerouteNo="0" devices="tripinfo_61 fcd_61" vType="DEFAULT_VEHTYPE" speedFactor="0.90" vaporized=""/>
    <tripinfo id="98" depart="99.00" departLane="74516068#1_0" departPos="5.10" departSpeed="0.00" departDelay="1.00" arrival="212.00" arrivalLane="-265322458#5_0" arrivalPos="94.15" arrivalSpeed="10.34" duration="113.00" routeLength="835.66" waitingTime="31.00" waitingCount="2" stopTime="0.00" timeLoss="52.59" rerouteNo="0" devices="tripinfo_98 fcd_98" vType="DEFAULT_VEHTYPE" speedFactor="1.04" vaporized=""/>
    <tripinfo id="50" depart="50.00" departLane="-265322458#1_0" departPos="5.10" departSpeed="0.00" departDelay="0.00" arrival="217.00" arrivalLane="75109400#6_0" arrivalPos="111.64" arrivalSpeed="14.79" duration="167.00" routeLength="1262.00" waitingTime="23.00" waitingCount="4" stopTime="0.00" timeLoss="66.15" rerouteNo="0" devices="tripinfo_50 fcd_50" vType="DEFAULT_VEHTYPE" speedFactor="1.09" vaporized=""/>
    <tripinfo id="82" depart="82.00" departLane="75251438#3_0" departPos="5.10" departSpeed="0.00" departDelay="0.00" arrival="217.00" arrivalLane="1081874540#0_0" arrivalPos="127.06" arrivalSpeed="5.28" duration="135.00" routeLength="821.78" waitingTime="37.00" waitingCount="5" stopTime="0.00" timeLoss="70.44" rerouteNo="0" devices="tripinfo_82 fcd_82" vType="DEFAULT_VEHTYPE" speedFactor="0.96" vaporized=""/>
    <tripinfo id="104" depart="104.00" departLane="27083324#0_0" departPos="5.10" departSpeed="0.00" departDelay="0.00" arrival="217.00" arrivalLane="960745690#0_0" arrivalPos="58.60" arrivalSpeed="8.84" duration="113.00" routeLength="588.37" waitingTime="15.00" waitingCount="2" stopTime="0.00" timeLoss="31.97" rerouteNo="0" devices="tripinfo_104 fcd_104" vType="DEFAULT_VEHTYPE" speedFactor="0.83" vaporized=""/>
    <tripinfo id="108" depart="108.00" departLane="74516072#0_0" departPos="5.10" departSpeed="0.00" departDelay="0.00" arrival="220.00" arrivalLane="75109400#6_0" arrivalPos="111.64" arrivalSpeed="13.59" duration="112.00" routeLength="798.26" waitingTime="17.00" waitingCount="4" stopTime="0.00" timeLoss="55.46" rerouteNo="0" devices="tripinfo_108 fcd_108" vType="DEFAULT_VEHTYPE" speedFactor="1.06" vaporized=""/>
    <tripinfo id="156" depart="158.00" departLane="27052071#0_0" departPos="5.10" departSpeed="0.00" departDelay="2.00" arrival="220.00" arrivalLane="160464620#2_1" arrivalPos="7.16" arrivalSpeed="7.29" duration="62.00" routeLength="592.50" waitingTime="0.00" waitingCount="0" stopTime="0.00" timeLoss="10.04" rerouteNo="0" devices="tripinfo_156 fcd_156" vType="DEFAULT_VEHTYPE" speedFactor="0.95" vaporized=""/>
    <tripinfo id="93" depart="93.00" departLane="75251438#4_0" departPos="5.10" departSpeed="0.00" departDelay="0.00" arrival="221.00" arrivalLane="27053791#2_0" arrivalPos="39.43" arrivalSpeed="12.81" duration="128.00" routeLength="759.75" waitingTime="30.00" waitingCount="4" stopTime="0.00" timeLoss="57.32" rerouteNo="0" devices="tripinfo_93 fcd_93" vType="DEFAULT_VEHTYPE" speedFactor="0.97" vaporized=""/>
    <tripinfo id="15" depart="15.00" departLane="75201454#3_0" departPos="5.10" departSpeed="0.00" departDelay="0.00" arrival="224.00" arrivalLane="75109400#7_0" arrivalPos="138.65" arrivalSpeed="14.24" duration="209.00" routeLength="1330.47" waitingTime="56.00" waitingCount="7" stopTime="0.00" timeLoss="108.54" rerouteNo="0" devices="tripinfo_15 fcd_15" vType="DEFAULT_VEHTYPE" speedFactor="1.05" vaporized=""/>
    <tripinfo id="183" depart="183.00" departLane="27052071#2_0" departPos="5.10" departSpeed="0.00" departDelay="0.00" arrival="231.00" arrivalLane="75096252#1_0" arrivalPos="136.81" arrivalSpeed="12.22" duration="48.00" routeLength="380.49" waitingTime="4.00" waitingCount="2" stopTime="0.00" timeLoss="17.99" rerouteNo="0" devices="tripinfo_183 fcd_183" vType="DEFAULT_VEHTYPE" speedFactor="0.91" vaporized=""/>
    <tripinfo id="113" depart="113.00" departLane="74433785#2_0" departPos="5.10" departSpeed="0.00" departDelay="0.00" arrival="233.00" arrivalLane="75356673#1_0" arrivalPos="136.66" arrivalSpeed="11.78" duration="120.00" routeLength="796.09" waitingTime="28.00" waitingCount="2" stopTime="0.00" timeLoss="49.60" rerouteNo="0" devices="tripinfo_113 fcd_113" vType="DEFAULT_VEHTYPE" speedFactor="1.06" vaporized=""/>
    <tripinfo id="29" depart="29.00" departLane="265322458#4_0" departPos="5.10" departSpeed="0.00" departDelay="0.00" arrival="234.00" arrivalLane="27082629#4_0" arrivalPos="51.97" arrivalSpeed="4.62" duration="205.00" routeLength="1378.26" waitingTime="43.00" waitingCount="3" stopTime="0.00" timeLoss="71.88" rerouteNo="0" devices="tripinfo_29 fcd_29" vType="DEFAULT_VEHTYPE" speedFactor="0.92" vaporized=""/>
    <tripinfo id="81" depart="83.00" departLane="270244026#8_0" departPos="5.10" departSpeed="0.00" departDelay="2.00" arrival="234.00" arrivalLane="75739328#2_0" arrivalPos="136.71" arrivalSpeed="13.92" duration="151.00" routeLength="1117.03" waitingTime="28.00" waitingCount="3" stopTime="0.00" timeLoss="75.85" rerouteNo="0" devices="tripinfo_81 fcd_81" vType="DEFAULT_VEHTYPE" speedFactor="1.06" vaporized=""/>
    <tripinfo id="94" depart="94.00" departLane="270244026#2_0" departPos="5.10" departSpeed="0.00" departDelay="0.00" arrival="238.00" arrivalLane="629585552_1" arrivalPos="25.93" arrivalSpeed="12.60" duration="144.00" routeLength="707.06" waitingTime="65.00" waitingCount="5" stopTime="0.00" timeLoss="97.60" rerouteNo="0" devices="tripinfo_94 fcd_94" vType="DEFAULT_VEHTYPE" speedFactor="1.15" vaporized=""/>
    <tripinfo id="151" depart="153.00" departLane="75201473_0" departPos="5.10" departSpeed="0.00" departDelay="2.00" arrival="239.00" arrivalLane="74516082#2_0" arrivalPos="135.00" arrivalSpeed="6.93" duration="86.00" routeLength="535.01" waitingTime="19.00" waitingCount="2" stopTime="0.00" timeLoss="53.93" rerouteNo="0" devices="tripinfo_151 fcd_151" vType="DEFAULT_VEHTYPE" speedFactor="1.23" vaporized=""/>
    <tripinfo id="65" depart="65.00" departLane="27082600#1_0" departPos="5.10" departSpeed="0.00" departDelay="0.00" arrival="240.00" arrivalLane="-446372799#1_0" arrivalPos="122.07" arrivalSpeed="8.12" duration="175.00" routeLength="972.11" waitingTime="58.00" waitingCount="6" stopTime="0.00" timeLoss="106.14" rerouteNo="0" devices="tripinfo_65 fcd_65" vType="DEFAULT_VEHTYPE" speedFactor="1.08" vaporized=""/>
    <tripinfo id="64" depart="64.00" departLane="75415229#0_0" departPos="5.10" departSpeed="0.00" departDelay="0.00" arrival="241.00" arrivalLane="75251438#2_0" arrivalPos="85.92" arrivalSpeed="13.16" duration="177.00" routeLength="1098.89" waitingTime="48.00" waitingCount="6" stopTime="0.00" timeLoss="102.09" rerouteNo="0" devices="tripinfo_64 fcd_64" vType="DEFAULT_VEHTYPE" speedFactor="0.97" vaporized=""/>
    <tripinfo id="1" depart="1.00" departLane="27053791#0_0" departPos="5.10" departSpeed="0.00" departDelay="0.00" arrival="242.00" arrivalLane="27052071#2_0" arrivalPos="101.69" arrivalSpeed="13.83" duration="241.00" routeLength="1490.29" waitingTime="62.00" waitingCount="6" stopTime="0.00" timeLoss="118.29" rerouteNo="0" devices="tripinfo_1 fcd_1" vType="DEFAULT_VEHTYPE" speedFactor="1.06" vaporized=""/>
    <tripinfo id="158" depart="158.00" departLane="28408742#2_0" departPos="5.10" departSpeed="0.00" departDelay="0.00" arrival="242.00" arrivalLane="74709025_0" arrivalPos="117.73" arrivalSpeed="6.50" duration="84.00" routeLength="522.40" waitingTime="21.00" waitingCount="3" stopTime="0.00" timeLoss="42.58" rerouteNo="0" devices="tripinfo_158 fcd_158" vType="DEFAULT_VEHTYPE" speedFactor="1.16" vaporized=""/>
    <tripinfo id="25" depart="25.00" departLane="27082629#3_0" departPos="5.10" departSpeed="0.00" departDelay="0.00" arrival="249.00" arrivalLane="27052069#2_0" arrivalPos="123.58" arrivalSpeed="10.15" duration="224.00" routeLength="1510.58" waitingTime="31.00" waitingCount="5" stopTime="0.00" timeLoss="71.53" rerouteNo="0" devices="tripinfo_25 fcd_25" vType="DEFAULT_VEHTYPE" speedFactor="0.97" vaporized=""/>
    <tripinfo id="76" depart="76.00" departLane="431340128_0" departPos="5.10" departSpeed="0.00" departDelay="0.00" arrival="252.00" arrivalLane="74433809#3_0" arrivalPos="123.82" arrivalSpeed="13.78" duration="176.00" routeLength="937.10" waitingTime="54.00" waitingCount="5" stopTime="0.00" timeLoss="89.24" rerouteNo="0" devices="tripinfo_76 fcd_76" vType="DEFAULT_VEHTYPE" speedFactor="1.02" vaporized=""/>