<?xml version="1.0" encoding="UTF-8"?>

<!-- generated on 2024-08-16 17:13:03 by Eclipse SUMO GUI Version 1.20.0
<configuration xmlns:xsi="http://www.w3.org/2001/XMLSchema-instance" xsi:noNamespaceSchemaLocation="http://sumo.dlr.de/xsd/sumoConfiguration.xsd">

    <input>
        <net-file value="C:\Users\ScottChen\Desktop\Traffics\rivadavia square_20240816\source\rs.net.xml"/>
        <route-files value="C:\Users\ScottChen\Desktop\Traffics\rivadavia square_20240816\source\rs.rou.xml"/>
        <additional-files value="C:\Users\ScottChen\Desktop\Traffics\rivadavia square_20240816\source\rs.add.xml"/>
    </input>

    <output>
        <fcd-output value="C:\Users\ScottChen\Desktop\Traffics\rivadavia square_20240816\source\rs.fcd.xml"/>
        <tripinfo-output value="C:\Users\ScottChen\Desktop\Traffics\rivadavia square_20240816\source\rs.tripinfo.xml"/>
    </output>

    <time>
        <begin value="0"/>
        <end value="500"/>
    </time>

</configuration>
-->

<tripinfos xmlns:xsi="http://www.w3.org/2001/XMLSchema-instance" xsi:noNamespaceSchemaLocation="http://sumo.dlr.de/xsd/tripinfo_file.xsd">
    <tripinfo id="41" depart="43.00" departLane="74516082#1_0" departPos="5.10" departSpeed="0.00" departDelay="2.00" arrival="67.00" arrivalLane="75739328#2_0" arrivalPos="136.71" arrivalSpeed="14.65" duration="24.00" routeLength="258.21" waitingTime="0.00" waitingCount="0" stopTime="0.00" timeLoss="5.79" rerouteNo="0" devices="tripinfo_41 fcd_41" vType="DEFAULT_VEHTYPE" speedFactor="1.10" vaporized=""/>
    <tripinfo id="20" depart="20.00" departLane="75109400#5_0" departPos="5.10" departSpeed="0.00" departDelay="0.00" arrival="74.00" arrivalLane="-265322458#5_0" arrivalPos="94.15" arrivalSpeed="9.96" duration="54.00" routeLength="428.56" waitingTime="7.00" waitingCount="1" stopTime="0.00" timeLoss="18.08" rerouteNo="0" devices="tripinfo_20 fcd_20" vType="DEFAULT_VEHTYPE" speedFactor="0.94" vaporized=""/>
    <tripinfo id="28" depart="28.00" departLane="270244026#1_0" departPos="5.10" departSpeed="0.00" departDelay="0.00" arrival="105.00" arrivalLane="75109400#7_0" arrivalPos="138.65" arrivalSpeed="11.12" duration="77.00" routeLength="540.72" waitingTime="22.00" waitingCount="1" stopTime="0.00" timeLoss="31.42" rerouteNo="0" devices="tripinfo_28 fcd_28" vType="DEFAULT_VEHTYPE" speedFactor="0.87" vaporized=""/>
    <tripinfo id="46" depart="46.00" departLane="75201454#1_0" departPos="5.10" departSpeed="0.00" departDelay="0.00" arrival="120.00" arrivalLane="28408742#5_0" arrivalPos="81.05" arrivalSpeed="11.37" duration="74.00" routeLength="598.19" waitingTime="13.00" waitingCount="1" stopTime="0.00" timeLoss="23.88" rerouteNo="0" devices="tripinfo_46 fcd_46" vType="DEFAULT_VEHTYPE" speedFactor="1.09" vaporized=""/>
    <tripinfo id="53" depart="53.00" departLane="160464618#0_0" departPos="5.10" departSpeed="0.00" departDelay="0.00" arrival="128.00" arrivalLane="446372799#0_0" arrivalPos="93.87" arrivalSpeed="6.91" duration="75.00" routeLength="381.39" waitingTime="16.00" waitingCount="1" stopTime="0.00" timeLoss="26.94" rerouteNo="0" devices="tripinfo_53 fcd_53" vType="DEFAULT_VEHTYPE" speedFactor="0.88" vaporized=""/>
    <tripinfo id="63" depart="63.00" departLane="-265322458#2_0" departPos="5.10" departSpeed="0.00" departDelay="0.00" arrival="137.00" arrivalLane="75739347#4_0" arrivalPos="216.58" arrivalSpeed="13.43" duration="74.00" routeLength="542.47" waitingTime="16.00" waitingCount="2" stopTime="0.00" timeLoss="28.25" rerouteNo="0" devices="tripinfo_63 fcd_63" vType="DEFAULT_VEHTYPE" speedFactor="1.02" vaporized=""/>
    <tripinfo id="102" depart="102.00" departLane="74371262#1_0" departPos="5.10" departSpeed="0.00" departDelay="0.00" arrival="143.00" arrivalLane="27052071#0_0" arrivalPos="62.30" arrivalSpeed="14.04" duration="41.00" routeLength="335.02" waitingTime="6.00" waitingCount="1" stopTime="0.00" timeLoss="20.38" rerouteNo="0" devices="tripinfo_102 fcd_102" vType="DEFAULT_VEHTYPE" speedFactor="1.02" vaporized=""/>
    <tripinfo id="24" depart="24.00" departLane="74709049#2_0" departPos="5.10" departSpeed="0.00" departDelay="0.00" arrival="145.00" arrivalLane="27082629#2_0" arrivalPos="122.77" arrivalSpeed="5.14" duration="121.00" routeLength="443.56" waitingTime="39.00" waitingCount="2" stopTime="0.00" timeLoss="60.15" rerouteNo="0" devices="tripinfo_24 fcd_24" vType="DEFAULT_VEHTYPE" speedFactor="1.01" vaporized=""/>
    <tripinfo id="36" depart="36.00" departLane="75356673#0_0" departPos="5.10" departSpeed="0.00" departDelay="0.00" arrival="149.00" arrivalLane="27082604#3_0" arrivalPos="59.54" arrivalSpeed="8.58" duration="113.00" routeLength="941.60" waitingTime="16.00" waitingCount="1" stopTime="0.00" timeLoss="37.99" rerouteNo="0" devices="tripinfo_36 fcd_36" vType="DEFAULT_VEHTYPE" speedFactor="1.17" vaporized=""/>
    <tripinfo id="77" depart="77.00" departLane="160464620#0_0" departPos="5.10" departSpeed="0.00" departDelay="0.00" arrival="150.00" arrivalLane="27052071#2_0" arrivalPos="101.69" arrivalSpeed="7.33" duration="73.00" routeLength="461.27" waitingTime="12.00" waitingCount="1" stopTime="0.00" timeLoss="26.59" rerouteNo="0" devices="tripinfo_77 fcd_77" vType="DEFAULT_VEHTYPE" speedFactor="1.02" vaporized=""/>
    <tripinfo id="137" depart="137.00" departLane="265322458#0_0" departPos="5.10" departSpeed="0.00" departDelay="0.00" arrival="150.00" arrivalLane="265322458#1_0" arrivalPos="92.49" arrivalSpeed="10.66" duration="13.00" routeLength="114.64" waitingTime="0.00" waitingCount="0" stopTime="0.00" timeLoss="2.68" rerouteNo="0" devices="tripinfo_137 fcd_137" vType="DEFAULT_VEHTYPE" speedFactor="1.02" vaporized=""/>
    <tripinfo id="127" depart="127.00" departLane="960745690#1_0" departPos="5.10" departSpeed="0.00" departDelay="0.00" arrival="151.00" arrivalLane="960745690#2_0" arrivalPos="76.13" arrivalSpeed="10.90" duration="24.00" routeLength="221.37" waitingTime="0.00" waitingCount="0" stopTime="0.00" timeLoss="3.88" rerouteNo="0" devices="tripinfo_127 fcd_127" vType="DEFAULT_VEHTYPE" speedFactor="1.01" vaporized=""/>
    <tripinfo id="83" depart="83.00" departLane="27052069#1_0" departPos="5.10" departSpeed="0.00" departDelay="0.00" arrival="159.00" arrivalLane="75042823#3_0" arrivalPos="120.98" arrivalSpeed="14.59" duration="76.00" routeLength="279.01" waitingTime="43.00" waitingCount="1" stopTime="0.00" timeLoss="58.27" rerouteNo="0" devices="tripinfo_83 fcd_83" vType="DEFAULT_VEHTYPE" speedFactor="0.98" vaporized=""/>
    <tripinfo id="21" depart="21.00" departLane="270244026#8_0" departPos="5.10" departSpeed="0.00" departDelay="0.00" arrival="160.00" arrivalLane="27056027#1_0" arrivalPos="131.19" arrivalSpeed="12.98" duration="139.00" routeLength="1140.89" waitingTime="18.00" waitingCount="2" stopTime="0.00" timeLoss="58.95" rerouteNo="0" devices="tripinfo_21 fcd_21" vType="DEFAULT_VEHTYPE" speedFactor="0.94" vaporized=""/>
    <tripinfo id="3" depart="3.00" departLane="75415229#1_0" departPos="5.10" departSpeed="0.00" departDelay="0.00" arrival="165.00" arrivalLane="142497496#1_0" arrivalPos="52.32" arrivalSpeed="13.87" duration="162.00" routeLength="775.47" waitingTime="73.00" waitingCount="2" stopTime="0.00" timeLoss="97.34" rerouteNo="0" devices="tripinfo_3 fcd_3" vType="DEFAULT_VEHTYPE" speedFactor="1.01" vaporized=""/>
    <tripinfo id="152" depart="152.00" departLane="265322458#3_0" departPos="5.10" departSpeed="0.00" departDelay="0.00" arrival="165.00" arrivalLane="265322458#3_0" arrivalPos="114.50" arrivalSpeed="10.58" duration="13.00" routeLength="109.40" waitingTime="0.00" waitingCount="0" stopTime="0.00" timeLoss="2.77" rerouteNo="0" devices="tripinfo_152 fcd_152" vType="DEFAULT_VEHTYPE" speedFactor="1.01" vaporized=""/>
    <tripinfo id="52" depart="52.00" departLane="27053786#2_0" departPos="5.10" departSpeed="0.00" departDelay="0.00" arrival="167.00" arrivalLane="74724938#3_0" arrivalPos="134.22" arrivalSpeed="9.27" duration="115.00" routeLength="826.80" waitingTime="19.00" waitingCount="1" stopTime="0.00" timeLoss="32.18" rerouteNo="0" devices="tripinfo_52 fcd_52" vType="DEFAULT_VEHTYPE" speedFactor="0.90" vaporized=""/>
    <tripinfo id="31" depart="31.00" departLane="74516072#0_0" departPos="5.10" departSpeed="0.00" departDelay="0.00" arrival="172.00" arrivalLane="75042825_0" arrivalPos="128.08" arrivalSpeed="15.43" duration="141.00" routeLength="781.35" waitingTime="73.00" waitingCount="2" stopTime="0.00" timeLoss="90.87" rerouteNo="0" devices="tripinfo_31 fcd_31" vType="DEFAULT_VEHTYPE" speedFactor="1.13" vaporized=""/>
    <tripinfo id="94" depart="95.00" departLane="270244026#2_0" departPos="5.10" departSpeed="0.00" departDelay="1.00" arrival="178.00" arrivalLane="629585552_0" arrivalPos="25.93" arrivalSpeed="7.16" duration="83.00" routeLength="707.06" waitingTime="10.00" waitingCount="1" stopTime="0.00" timeLoss="36.68" rerouteNo="0" devices="tripinfo_94 fcd_94" vType="DEFAULT_VEHTYPE" speedFactor="1.15" vaporized=""/>
    <tripinfo id="7" depart="7.00" departLane="75042822#1_0" departPos="5.10" departSpeed="0.00" departDelay="0.00" arrival="183.00" arrivalLane="74516072#0_0" arrivalPos="132.52" arrivalSpeed="4.58" duration="176.00" routeLength="1019.40" waitingTime="61.00" waitingCount="3" stopTime="0.00" timeLoss="88.65" rerouteNo="0" devices="tripinfo_7 fcd_7" vType="DEFAULT_VEHTYPE" speedFactor="0.83" vaporized=""/>
    <tripinfo id="32" depart="32.00" departLane="75251438#0_0" departPos="5.10" departSpeed="0.00" departDelay="0.00" arrival="184.00" arrivalLane="75201453_1" arrivalPos="116.55" arrivalSpeed="6.74" duration="152.00" routeLength="1005.77" waitingTime="45.00" waitingCount="1" stopTime="0.00" timeLoss="59.00" rerouteNo="0" devices="tripinfo_32 fcd_32" vType="DEFAULT_VEHTYPE" speedFactor="0.93" vaporized=""/>
    <tripinfo id="134" depart="134.00" departLane="75042822#2_0" departPos="5.10" departSpeed="0.00" departDelay="0.00" arrival="187.00" arrivalLane="-160464618#1_0" arrivalPos="40.95" arrivalSpeed="10.16" duration="53.00" routeLength="299.90" waitingTime="5.00" waitingCount="1" stopTime="0.00" timeLoss="15.58" rerouteNo="0" devices="tripinfo_134 fcd_134" vType="DEFAULT_VEHTYPE" speedFactor="0.94" vaporized=""/>
    <tripinfo id="6" depart="6.00" departLane="-265322458#3_0" departPos="5.10" departSpeed="0.00" departDelay="0.00" arrival="190.00" arrivalLane="27052069#0_0" arrivalPos="54.66" arrivalSpeed="10.89" duration="184.00" routeLength="1121.58" waitingTime="41.00" waitingCount="1" stopTime="0.00" timeLoss="59.50" rerouteNo="0" devices="tripinfo_6 fcd_6" vType="DEFAULT_VEHTYPE" speedFactor="1.03" vaporized=""/>
    <tripinfo id="124" depart="124.00" departLane="75042823#3_0" departPos="5.10" departSpeed="0.00" departDelay="0.00" arrival="193.00" arrivalLane="27082600#0_0" arrivalPos="67.29" arrivalSpeed="11.89" duration="69.00" routeLength="450.95" waitingTime="22.00" waitingCount="1" stopTime="0.00" timeLoss="37.04" rerouteNo="0" devices="tripinfo_124 fcd_124" vType="DEFAULT_VEHTYPE" speedFactor="0.93" vaporized=""/>
    <tripinfo id="79" depart="79.00" departLane="270244026#8_0" departPos="5.10" departSpeed="0.00" departDelay="0.00" arrival="194.00" arrivalLane="27052071#2_0" arrivalPos="101.69" arrivalSpeed="10.16" duration="115.00" routeLength="606.07" waitingTime="47.00" waitingCount="2" stopTime="0.00" timeLoss="77.87" rerouteNo="0" devices="tripinfo_79 fcd_79" vType="DEFAULT_VEHTYPE" speedFactor="0.97" vaporized=""/>
    <tripinfo id="154" depart="154.00" departLane="75201454#2_0" departPos="5.10" departSpeed="0.00" departDelay="0.00" arrival="198.00" arrivalLane="75356673#1_0" arrivalPos="136.66" arrivalSpeed="11.24" duration="44.00" routeLength="263.10" waitingTime="12.00" waitingCount="1" stopTime="0.00" timeLoss="19.72" rerouteNo="0" devices="tripinfo_154 fcd_154" vType="DEFAULT_VEHTYPE" speedFactor="1.02" vaporized=""/>
    <tripinfo id="159" depart="159.00" departLane="265322458#3_0" departPos="5.10" departSpeed="0.00" departDelay="0.00" arrival="201.00" arrivalLane="75739347#4_0" arrivalPos="216.58" arrivalSpeed="12.47" duration="42.00" routeLength="338.56" waitingTime="5.00" waitingCount="1" stopTime="0.00" timeLoss="12.83" rerouteNo="0" devices="tripinfo_159 fcd_159" vType="DEFAULT_VEHTYPE" speedFactor="0.94" vaporized=""/>
    <tripinfo id="17" depart="17.00" departLane="27083324#0_0" departPos="5.10" departSpeed="0.00" departDelay="0.00" arrival="203.00" arrivalLane="74516072#0_0" arrivalPos="132.52" arrivalSpeed="9.56" duration="186.00" routeLength="1052.97" waitingTime="61.00" waitingCount="3" stopTime="0.00" timeLoss="94.32" rerouteNo="0" devices="tripinfo_17 fcd_17" vType="DEFAULT_VEHTYPE" speedFactor="0.99" vaporized=""/>
    <tripinfo id="1" depart="1.00" departLane="27053791#0_0" departPos="5.10" departSpeed="0.00" departDelay="0.00" arrival="205.00" arrivalLane="27052071#2_0" arrivalPos="101.69" arrivalSpeed="9.80" duration="204.00" routeLength="1490.29" waitingTime="46.00" waitingCount="2" stopTime="0.00" timeLoss="81.79" rerouteNo="0" devices="tripinfo_1 fcd_1" vType="DEFAULT_VEHTYPE" speedFactor="1.06" vaporized=""/>
    <tripinfo id="14" depart="14.00" departLane="75251438#1_0" departPos="5.10" departSpeed="0.00" departDelay="0.00" arrival="210.00" arrivalLane="74516082#4_0" arrivalPos="208.53" arrivalSpeed="13.48" duration="196.00" routeLength="1150.51" waitingTime="76.00" waitingCount="4" stopTime="0.00" timeLoss="108.67" rerouteNo="0" devices="tripinfo_14 fcd_14" vType="DEFAULT_VEHTYPE" speedFactor="1.03" vaporized=""/>
    <tripinfo id="104" depart="104.00" departLane="27083324#0_0" departPos="5.10" departSpeed="0.00" departDelay="0.00" arrival="217.00" arrivalLane="960745690#0_0" arrivalPos="58.60" arrivalSpeed="8.69" duration="113.00" routeLength="588.37" waitingTime="14.00" waitingCount="1" stopTime="0.00" timeLoss="31.12" rerouteNo="0" devices="tripinfo_104 fcd_104" vType="DEFAULT_VEHTYPE" speedFactor="0.83" vaporized=""/>
    <tripinfo id="158" depart="158.00" departLane="28408742#2_0" departPos="5.10" departSpeed="0.00" departDelay="0.00" arrival="217.00" arrivalLane="74709025_0" arrivalPos="117.73" arrivalSpeed="12.15" duration="59.00" routeLength="522.40" waitingTime="5.00" waitingCount="1" stopTime="0.00" timeLoss="17.38" rerouteNo="0" devices="tripinfo_158 fcd_158" vType="DEFAULT_VEHTYPE" speedFactor="1.16" vaporized=""/>
    <tripinfo id="40" depart="40.00" departLane="74516072#0_0" departPos="5.10" departSpeed="0.00" departDelay="0.00" arrival="224.00" arrivalLane="27055797_0" arrivalPos="247.28" arrivalSpeed="16.13" duration="184.00" routeLength="1139.07" waitingTime="87.00" waitingCount="3" stopTime="0.00" timeLoss="112.61" rerouteNo="0" devices="tripinfo_40 fcd_40" vType="DEFAULT_VEHTYPE" speedFactor="1.18" vaporized=""/>
    <tripinfo id="66" depart="67.00" departLane="75415229#0_0" departPos="5.10" departSpeed="0.00" departDelay="1.00" arrival="228.00" arrivalLane="75744490#1_0" arrivalPos="104.02" arrivalSpeed="4.82" duration="161.00" routeLength="897.38" waitingTime="78.00" waitingCount="3" stopTime="0.00" timeLoss="114.95" rerouteNo="0" devices="tripinfo_66 fcd_66" vType="DEFAULT_VEHTYPE" speedFactor="1.12" vaporized=""/>
    <tripinfo id="183" depart="190.00" departLane="27052071#2_0" departPos="5.10" departSpeed="0.00" departDelay="7.00" arrival="229.00" arrivalLane="75096252#1_0" arrivalPos="136.81" arrivalSpeed="12.06" duration="39.00" routeLength="380.49" waitingTime="0.00" waitingCount="0" stopTime="0.00" timeLoss="8.22" rerouteNo="0" devices="tripinfo_183 fcd_183" vType="DEFAULT_VEHTYPE" speedFactor="0.91" vaporized=""/>
    <tripinfo id="35" depart="35.00" departLane="270244026#4_0" departPos="5.10" departSpeed="0.00" departDelay="0.00" arrival="230.00" arrivalLane="75744490#1_0" arrivalPos="104.02" arrivalSpeed="7.60" duration="195.00" routeLength="1236.04" waitingTime="65.00" waitingCount="4" stopTime="0.00" timeLoss="113.24" rerouteNo="0" devices="tripinfo_35 fcd_35" vType="DEFAULT_VEHTYPE" speedFactor="1.01" vaporized=""/>
    <tripinfo id="38" depart="38.00" departLane="75739345#3_0" departPos="5.10" departSpeed="0.00" departDelay="0.00" arrival="230.00" arrivalLane="73255164#1_0" arrivalPos="10.90" arrivalSpeed="8.42" duration="192.00" routeLength="1080.46" waitingTime="83.00" waitingCount="3" stopTime="0.00" timeLoss="120.95" rerouteNo="0" devices="tripinfo_38 fcd_38" vType="DEFAULT_VEHTYPE" speedFactor="1.02" vaporized=""/>
    <tripinfo id="108" depart="108.00" departLane="74516072#0_0" departPos="5.10" departSpeed="0.00" departDelay="0.00" arrival="231.00" arrivalLane="75109400#6_0" arrivalPos="111.64" arrivalSpeed="8.02" duration="123.00" routeLength="798.26" waitingTime="36.00" waitingCount="3" stopTime="0.00" timeLoss="65.80" rerouteNo="0" devices="tripinfo_108 fcd_108" vType="DEFAULT_VEHTYPE" speedFactor="1.06" vaporized=""/>
    <tripinfo id="70" depart="70.00" departLane="73255201_0" departPos="5.10" departSpeed="0.00" departDelay="0.00" arrival="232.00" arrivalLane="74516072#0_0" arrivalPos="132.52" arrivalSpeed="12.12" duration="162.00" routeLength="862.62" waitingTime="47.00" waitingCount="2" stopTime="0.00" timeLoss="67.73" rerouteNo="0" devices="tripinfo_70 fcd_70" vType="DEFAULT_VEHTYPE" speedFactor="0.88" vaporized=""/>
    <tripinfo id="8" depart="8.00" departLane="270244026#6_0" departPos="5.10" departSpeed="0.00" departDelay="0.00" arrival="233.00" arrivalLane="74516082#3_0" arrivalPos="174.26" arrivalSpeed="7.91" duration="225.00" routeLength="1402.46" waitingTime="84.00" waitingCount="5" stopTime="0.00" timeLoss="130.62" rerouteNo="0" devices="tripinfo_8 fcd_8" vType="DEFAULT_VEHTYPE" speedFactor="1.05" vaporized=""/>
    <tripinfo id="80" depart="80.00" departLane="-75452225_0" departPos="5.10" departSpeed="0.00" departDelay="0.00" arrival="236.00" arrivalLane="74724938#1_1" arrivalPos="44.83" arrivalSpeed="9.60" duration="156.00" routeLength="1132.12" waitingTime="40.00" waitingCount="1" stopTime="0.00" timeLoss="58.75" rerouteNo="0" devices="tripinfo_80 fcd_80" vType="DEFAULT_VEHTYPE" speedFactor="0.94" vaporized=""/>
    <tripinfo id="23" depart="23.00" departLane="142497496#0_0" departPos="5.10" departSpeed="0.00" departDelay="0.00" arrival="238.00" arrivalLane="27056027#0_0" arrivalPos="122.47" arrivalSpeed="13.91" duration="215.00" routeLength="1010.44" waitingTime="95.00" waitingCount="5" stopTime="0.00" timeLoss="133.84" rerouteNo="0" devices="tripinfo_23 fcd_23" vType="DEFAULT_VEHTYPE" speedFactor="1.02" vaporized=""/>
    <tripinfo id="93" depart="94.00" departLane="75251438#4_0" departPos="5.10" departSpeed="0.00" departDelay="1.00" arrival="238.00" arrivalLane="27053791#2_0" arrivalPos="39.43" arrivalSpeed="13.39" duration="144.00" routeLength="759.75" waitingTime="51.00" waitingCount="2" stopTime="0.00" timeLoss="72.65" rerouteNo="0" devices="tripinfo_93 fcd_93" vType="DEFAULT_VEHTYPE" speedFactor="0.97" vaporized=""/>
    <tripinfo id="51" depart="51.00" departLane="75042826_0" departPos="5.10" departSpeed="0.00" departDelay="0.00" arrival="239.00" arrivalLane="74516068#1_0" arrivalPos="128.99" arrivalSpeed="13.84" duration="188.00" routeLength="915.66" waitingTime="81.00" waitingCount="3" stopTime="0.00" timeLoss="108.63" rerouteNo="0" devices="tripinfo_51 fcd_51" vType="DEFAULT_VEHTYPE" speedFactor="1.00" vaporized=""/>
    <tripinfo id="76" depart="77.00" departLane="431340128_0" departPos="5.10" departSpeed="0.00" departDelay="1.00" arrival="240.00" arrivalLane="74433809#3_0" arrivalPos="123.82" arrivalSpeed="13.02" duration="163.00" routeLength="937.10" waitingTime="41.00" waitingCount="1" stopTime="0.00" timeLoss="75.30" rerouteNo="0" devices="tripinfo_76 fcd_76" vType="DEFAULT_VEHTYPE" speedFactor="1.02" vaporized=""/>
    <tripinfo id="44" depart="44.00" departLane="142496491_0" departPos="5.10" departSpeed="0.00" departDelay="0.00" arrival="241.00" arrivalLane="-265322458#5_1" arrivalPos="94.15" arrivalSpeed="7.68" duration="197.00" routeLength="909.08" waitingTime="99.00" waitingCount="4" stopTime="0.00" timeLoss="130.49" rerouteNo="0" devices="tripinfo_44 fcd_44" vType="DEFAULT_VEHTYPE" speedFactor="1.03" vaporized=""/>
    <tripinfo id="167" depart="168.00" departLane="75356673#0_0" departPos="5.10" departSpeed="0.00" departDelay="1.00" arrival="241.00" arrivalLane="75356673#1_0" arrivalPos="136.66" arrivalSpeed="10.54" duration="73.00" routeLength="273.10" waitingTime="41.00" waitingCount="1" stopTime="0.00" timeLoss="47.33" rerouteNo="0" devices="tripinfo_167 fcd_167" vType="DEFAULT_VEHTYPE" speedFactor="0.96" vaporized=""/>
    <tripinfo id="179" depart="179.00" departLane="142497496#3_0" departPos="5.10" departSpeed="0.00" departDelay="0.00" arrival="241.00" arrivalLane="446372799#0_0" arrivalPos="93.87" arrivalSpeed="8.63" duration="62.00" routeLength="438.37" waitingTime="3.00" waitingCount="1" stopTime="0.00" timeLoss="15.60" rerouteNo="0" devices="tripinfo_179 fcd_179" vType="DEFAULT_VEHTYPE" speedFactor="1.08" vaporized=""/>
    <tripinfo id="98" depart="101.00" departLane="74516068#1_0" departPos="5.10" departSpeed="0.00" departDelay="3.00" arrival="244.00" arrivalLane="-265322458#5_1" arrivalPos="94.15" arrivalSpeed="5.15" duration="143.00" routeLength="835.66" waitingTime="48.00" waitingCount="2" stopTime="0.00" timeLoss="82.59" rerouteNo="0" devices="tripinfo_98 fcd_98" vType="DEFAULT_VEHTYPE" speedFactor="1.04" vaporized=""/>
    <tripinfo id="156" depart="158.00" departLane="27052071#0_0" departPos="5.10" departSpeed="0.00" departDelay="2.00" arrival="247.00" arrivalLane="160464620#2_1" arrivalPos="7.16" arrivalSpeed="7.27" duration="89.00" routeLength="592.50" waitingTime="12.00" waitingCount="2" stopTime="0.00" timeLoss="37.50" rerouteNo="0" devices="tripinfo_156 fcd_156" vType="DEFAULT_VEHTYPE" speedFactor="0.95" vaporized=""/>
    <tripinfo id="22" depart="22.00" departLane="1081874540#0_0" departPos="5.10" departSpeed="0.00" departDelay="0.00" arrival="248.00" arrivalLane="27053786#3_0" arrivalPos="66.06" arrivalSpeed="12.37" duration="226.00" routeLength="1033.79" waitingTime="104.00" waitingCount="5" stopTime="0.00" timeLoss="144.51" rerouteNo="0" devices="tripinfo_22 fcd_22" vType="DEFAULT_VEHTYPE" speedFactor="1.16" vaporized=""/>
    <tripinfo id="10" depart="12.00" departLane="75201454#3_0" departPos="5.10" departSpeed="0.00" departDelay="2.00" arrival="249.00" arrivalLane="75096252#0_0" arrivalPos="124.85" arrivalSpeed="12.14" duration="237.00" routeLength="1370.62" waitingTime="78.00" waitingCount="4" stopTime="0.00" timeLoss="118.03" rerouteNo="0" devices="tripinfo_10 fcd_10" vType="DEFAULT_VEHTYPE" speedFactor="0.94" vaporized=""/>
    <tripinfo id="113" depart="113.00" departLane="74433785#2_0" departPos="5.10" departSpeed="0.00" departDelay="0.00" arrival="249.00" arrivalLane="75356673#1_0" arrivalPos="136.66" arrivalSpeed="10.86" duration="136.00" routeLength="796.09" waitingTime="39.00" waitingCount="2" stopTime="0.00" timeLoss="64.43" rerouteNo="0" devices="tripinfo_113 fcd_113" vType="DEFAULT_VEHTYPE" speedFactor="1.06" vaporized=""/>
    <tripinfo id="47" depart="47.00" departLane="-446372799#1_0" departPos="5.10" departSpeed="0.00" departDelay="0.00" arrival="250.00" arrivalLane="27083324#0_0" arrivalPos="115.75" arrivalSpeed="13.68" duration="203.00" routeLength="1226.54" waitingTime="67.00" waitingCount="3" stopTime="0.00" timeLoss="105.37" rerouteNo="0" devices="tripinfo_47 fcd_47" vType="DEFAULT_VEHTYPE" speedFactor="1.04" vaporized=""/>
    <tripinfo id="73" depart="73.00" departLane="74516068#0_0" departPos="5.10" departSpeed="0.00" departDelay="0.00" arrival="252.00" arrivalLane="75109400#8_0" arrivalPos="114.60" arrivalSpeed="11.93" duration="179.00" routeLength="1077.25" waitingTime="63.00" waitingCount="3" stopTime="0.00" timeLoss="91.87" rerouteNo="0" devices="tripinfo_73 fcd_73" vType="DEFAULT_VEHTYPE" speedFactor="0.91" vaporized=""/>
    <tripinfo id="82" depart="82.00" departLane="75251438#3_0" departPos="5.10" departSpeed="0.00" departDelay="0.00" arrival="252.00" arrivalLane="1081874540#0_0" arrivalPos="127.06" arrivalSpeed="10.19" duration="170.00" routeLength="821.78" waitingTime="90.00" waitingCount="2" stopTime="0.00" timeLoss="104.94" rerouteNo="0" devices="tripinfo_82 fcd_82" vType="DEFAULT_VEHTYPE" speedFactor="0.96" vaporized=""/>
    <tripinfo id="49" depart="49.00" departLane="782190085#0_0" departPos="5.10" departSpeed="0.00" departDelay="0.00" arrival="254.00" arrivalLane="75356673#1_0" arrivalPos="136.66" arrivalSpeed="10.71" duration="205.00" routeLength="1226.04" waitingTime="80.00" waitingCount="3" stopTime="0.00" timeLoss="112.31" rerouteNo="0" devices="tripinfo_49 fcd_49" vType="DEFAULT_VEHTYPE" speedFactor="1.04" vaporized=""/>
    <tripinfo id="92" depart="92.00" departLane="28408742#1_0" departPos="5.10" departSpeed="0.00" departDelay="0.00" arrival="254.00" arrivalLane="27082605_0" arrivalPos="123.93" arrivalSpeed="13.73" duration="162.00" routeLength="1184.49" waitingTime="28.00" waitingCount="2" stopTime="0.00" timeLoss="53.82" rerouteNo="0" devices="tripinfo_92 fcd_92" vType="DEFAULT_VEHTYPE" speedFactor="1.02" vaporized=""/>
    <tripinfo id="84" depart="84.00" departLane="270244026#5_0" departPos="5.10" departSpeed="0.00" departDelay="0.00" arrival="255.00" arrivalLane="265322458#3_1" arrivalPos="114.50" arrivalSpeed="10.45" duration="171.00" routeLength="1331.35" waitingTime="32.00" waitingCount="2" stopTime="0.00" timeLoss="69.60" rerouteNo="0" devices="tripinfo_84 fcd_84" vType="DEFAULT_VEHTYPE" speedFactor="1.03" vaporized=""/>
    <tripinfo id="30" depart="30.00" departLane="960745690#0_0" departPos="5.10" departSpeed="0.00" departDelay="0.00" arrival="256.00" arrivalLane="74724938#3_0" arrivalPos="134.22" arrivalSpeed="9.57" duration="226.00" routeLength="1482.47" waitingTime="65.00" waitingCount="3" stopTime="0.00" timeLoss="92.83" rerouteNo="0" devices="tripinfo_30 fcd_30" vType="DEFAULT_VEHTYPE" speedFactor="0.95" vaporized=""/>
    <tripinfo id="2" depart="2.00" departLane="75109404_0" departPos="5.10" departSpeed="0.00" departDelay="0.00" arrival="259.00" arrivalLane="75042823#4_0" arrivalPos="121.67" arrivalSpeed="24.54" duration="257.00" routeLength="1876.35" waitingTime="66.00" waitingCount="4" stopTime="0.00" timeLoss="113.04" rerouteNo="0" devices="tripinfo_2 fcd_2" vType="DEFAULT_VEHTYPE" speedFactor="0.94" vaporized=""/>
    <tripinfo id="65" depart="65.00" departLane="27082600#1_0" departPos="5.10" departSpeed="0.00" departDelay="0.00" arrival="267.00" arrivalLane="-446372799#1_0" arrivalPos="122.07" arrivalSpeed="8.97" duration="202.00" routeLength="972.11" waitingTime="100.00" waitingCount="3" stopTime="0.00" timeLoss="133.09" rerouteNo="0" devices="tripinfo_65 fcd_65" vType="DEFAULT_VEHTYPE" speedFactor="1.08" vaporized=""/>
    <tripinfo id="189" depart="189.00" departLane="27082604#1_0" departPos="5.10" departSpeed="0.00" departDelay="0.00" arrival="268.00" arrivalLane="75356673#0_0" arrivalPos="130.31" arrivalSpeed="9.70" duration="79.00" routeLength="663.57" waitingTime="0.00" waitingCount="0" stopTime="0.00" timeLoss="14.50" rerouteNo="0" devices="tripinfo_189 fcd_189" vType="DEFAULT_VEHTYPE" speedFactor="0.90" vaporized=""/>
    <tripinfo id="5" depart="5.00" departLane="270244026#5_0" departPos="5.10" departSpeed="0.00" departDelay="0.00" arrival="273.00" arrivalLane="74433809#2_0" arrivalPos="130.01" arrivalSpeed="5.74" duration="268.00" routeLength="1605.67" waitingTime="124.00" waitingCount="4" stopTime="0.00" timeLoss="158.69" rerouteNo="0" devices="tripinfo_5 fcd_5" vType="DEFAULT_VEHTYPE" speedFactor="1.08" vaporized=""/>
    <tripinfo id="101" depart="103.00" departLane="75251438#1_0" departPos="5.10" departSpeed="0.00" departDelay="2.00" arrival="274.00" arrivalLane="270244026#3_0" arrivalPos="124.17" arrivalSpeed="5.58" duration="171.00" routeLength="1061.43" waitingTime="55.00" waitingCount="3" stopTime="0.00" timeLoss="92.63" rerouteNo="0" devices="tripinfo_101 fcd_101" vType="DEFAULT_VEHTYPE" speedFactor="1.02" vaporized=""/>
    <tripinfo id="9" depart="9.00" departLane="75201454#3_0" departPos="5.10" departSpeed="0.00" departDelay="0.00" arrival="277.00" arrivalLane="-160464618#1_0" arrivalPos="40.95" arrivalSpeed="9.65" duration="268.00" routeLength="1299.74" waitingTime="101.00" waitingCount="5" stopTime="0.00" timeLoss="135.50" rerouteNo="0" devices="tripinfo_9 fcd_9" vType="DEFAULT_VEHTYPE" speedFactor="0.89" vaporized=""/>
    <tripinfo id="39" depart="39.00" departLane="27053786#1_0" departPos="5.10" departSpeed="0.00" departDelay="0.00" arrival="278.00" arrivalLane="27053791#1_0" arrivalPos="69.85" arrivalSpeed="12.78" duration="239.00" routeLength="878.96" waitingTime="111.00" waitingCount="4" stopTime="0.00" timeLoss="144.79" rerouteNo="0" devices="tripinfo_39 fcd_39" vType="DEFAULT_VEHTYPE" speedFactor="0.97" vaporized=""/>
    <tripinfo id="45" depart="45.00" departLane="142497496#3_0" departPos="5.10" departSpeed="0.00" departDelay="0.00" arrival="278.00" arrivalLane="74709049#2_0" arrivalPos="45.23" arrivalSpeed="12.00" duration="233.00" routeLength="1033.56" waitingTime="75.00" waitingCount="3" stopTime="0.00" timeLoss="101.84" rerouteNo="0" devices="tripinfo_45 fcd_45" vType="DEFAULT_VEHTYPE" speedFactor="0.96" vaporized=""/>
    <tripinfo id="162" depart="162.00" departLane="-265322458#3_0" departPos="5.10" departSpeed="0.00" departDelay="0.00" arrival="281.00" arrivalLane="75109400#8_0" arrivalPos="114.60" arrivalSpeed="14.63" duration="119.00" routeLength="733.23" waitingTime="38.00" waitingCount="2" stopTime="0.00" timeLoss="60.80" rerouteNo="0" devices="tripinfo_162 fcd_162" vType="DEFAULT_VEHTYPE" speedFactor="1.14" vaporized=""/>