<?xml version="1.0" encoding="UTF-8"?>

<!-- generated on 2024-08-18 21:52:19 by Eclipse SUMO GUI Version 1.20.0
<configuration xmlns:xsi="http://www.w3.org/2001/XMLSchema-instance" xsi:noNamespaceSchemaLocation="http://sumo.dlr.de/xsd/sumoConfiguration.xsd">

    <input>
        <net-file value="C:\Users\j9902\Desktop\Traffic spain avenue\source.new\spain.net.xml"/>
        <route-files value="C:\Users\j9902\Desktop\Traffic spain avenue\source.new\spain.rou.xml"/>
        <additional-files value="C:\Users\j9902\Desktop\Traffic spain avenue\source.new\spain.add.xml"/>
    </input>

    <output>
        <fcd-output value="C:\Users\j9902\Desktop\Traffic spain avenue\source.new\spain.fcd.xml"/>
        <tripinfo-output value="C:\Users\j9902\Desktop\Traffic spain avenue\source.new\spain.tripinfo.xml"/>
    </output>

    <time>
        <begin value="0"/>
        <end value="500"/>
    </time>

</configuration>
-->

<tripinfos xmlns:xsi="http://www.w3.org/2001/XMLSchema-instance" xsi:noNamespaceSchemaLocation="http://sumo.dlr.de/xsd/tripinfo_file.xsd">
    <tripinfo id="34" depart="4.00" departLane="27617860_0" departPos="5.10" departSpeed="0.00" departDelay="0.60" arrival="9.00" arrivalLane="27617860_0" arrivalPos="32.08" arrivalSpeed="7.53" duration="5.00" routeLength="26.98" waitingTime="0.00" waitingCount="0" stopTime="0.00" timeLoss="1.60" rerouteNo="0" devices="tripinfo_34 fcd_34" vType="DEFAULT_VEHTYPE" speedFactor="1.01" vaporized=""/>
    <tripinfo id="13" depart="2.00" departLane="-627718562#1_0" departPos="5.10" departSpeed="0.00" departDelay="0.70" arrival="12.00" arrivalLane="-627718562#1_0" arrivalPos="89.09" arrivalSpeed="11.97" duration="10.00" routeLength="83.99" waitingTime="0.00" waitingCount="0" stopTime="0.00" timeLoss="2.79" rerouteNo="0" devices="tripinfo_13 fcd_13" vType="DEFAULT_VEHTYPE" speedFactor="0.94" vaporized=""/>
    <tripinfo id="27" depart="7.00" departLane="35902564#0_0" departPos="5.10" departSpeed="0.00" departDelay="4.30" arrival="16.00" arrivalLane="35902564#0_0" arrivalPos="87.63" arrivalSpeed="15.29" duration="9.00" routeLength="82.53" waitingTime="0.00" waitingCount="0" stopTime="0.00" timeLoss="3.64" rerouteNo="0" devices="tripinfo_27 fcd_27" vType="DEFAULT_VEHTYPE" speedFactor="1.16" vaporized=""/>
    <tripinfo id="15" depart="4.00" departLane="559702823#3_1" departPos="5.10" departSpeed="0.00" departDelay="2.50" arrival="18.00" arrivalLane="559702823#4_1" arrivalPos="63.38" arrivalSpeed="14.28" duration="14.00" routeLength="138.79" waitingTime="0.00" waitingCount="0" stopTime="0.00" timeLoss="4.67" rerouteNo="0" devices="tripinfo_15 fcd_15" vType="DEFAULT_VEHTYPE" speedFactor="1.09" vaporized=""/>
    <tripinfo id="57" depart="7.00" departLane="636388787#4_1" departPos="5.10" departSpeed="0.00" departDelay="1.30" arrival="23.00" arrivalLane="636388787#6_1" arrivalPos="33.39" arrivalSpeed="7.73" duration="16.00" routeLength="101.55" waitingTime="0.00" waitingCount="0" stopTime="0.00" timeLoss="3.71" rerouteNo="0" devices="tripinfo_57 fcd_57" vType="DEFAULT_VEHTYPE" speedFactor="1.03" vaporized=""/>
    <tripinfo id="127" depart="14.00" departLane="934005397_0" departPos="5.10" departSpeed="0.00" departDelay="1.30" arrival="25.00" arrivalLane="934005397_0" arrivalPos="29.46" arrivalSpeed="4.86" duration="11.00" routeLength="24.36" waitingTime="0.00" waitingCount="0" stopTime="0.00" timeLoss="7.84" rerouteNo="0" devices="tripinfo_127 fcd_127" vType="DEFAULT_VEHTYPE" speedFactor="1.00" vaporized=""/>
    <tripinfo id="78" depart="8.00" departLane="30098185#1_1" departPos="5.10" departSpeed="0.00" departDelay="0.20" arrival="28.00" arrivalLane="35902125#5_1" arrivalPos="10.35" arrivalSpeed="9.15" duration="20.00" routeLength="145.96" waitingTime="0.00" waitingCount="0" stopTime="0.00" timeLoss="3.62" rerouteNo="0" devices="tripinfo_78 fcd_78" vType="DEFAULT_VEHTYPE" speedFactor="1.14" vaporized=""/>
    <tripinfo id="153" depart="16.00" departLane="27617819#3_0" departPos="5.10" departSpeed="0.00" departDelay="0.70" arrival="31.00" arrivalLane="765527988#2_1" arrivalPos="40.02" arrivalSpeed="9.43" duration="15.00" routeLength="106.85" waitingTime="0.00" waitingCount="0" stopTime="0.00" timeLoss="7.39" rerouteNo="0" devices="tripinfo_153 fcd_153" vType="DEFAULT_VEHTYPE" speedFactor="1.01" vaporized=""/>
    <tripinfo id="97" depart="10.00" departLane="349851320#0_1" departPos="5.10" departSpeed="0.00" departDelay="0.30" arrival="36.00" arrivalLane="636388787#4_1" arrivalPos="24.76" arrivalSpeed="7.59" duration="26.00" routeLength="160.67" waitingTime="0.00" waitingCount="0" stopTime="0.00" timeLoss="3.87" rerouteNo="0" devices="tripinfo_97 fcd_97" vType="DEFAULT_VEHTYPE" speedFactor="0.91" vaporized=""/>
    <tripinfo id="205" depart="21.00" departLane="61279128#0_1" departPos="5.10" departSpeed="0.00" departDelay="0.50" arrival="39.00" arrivalLane="61279128#1_1" arrivalPos="111.57" arrivalSpeed="9.61" duration="18.00" routeLength="160.21" waitingTime="0.00" waitingCount="0" stopTime="0.00" timeLoss="2.90" rerouteNo="0" devices="tripinfo_205 fcd_205" vType="DEFAULT_VEHTYPE" speedFactor="0.96" vaporized=""/>
    <tripinfo id="1" depart="1.00" departLane="255925785#1_0" departPos="5.10" departSpeed="0.00" departDelay="0.90" arrival="42.00" arrivalLane="23162032#1_2" arrivalPos="84.42" arrivalSpeed="13.46" duration="41.00" routeLength="351.96" waitingTime="3.00" waitingCount="1" stopTime="0.00" timeLoss="15.58" rerouteNo="0" devices="tripinfo_1 fcd_1" vType="DEFAULT_VEHTYPE" speedFactor="1.06" vaporized=""/>
    <tripinfo id="22" depart="5.00" departLane="-627718562#1_0" departPos="5.10" departSpeed="0.00" departDelay="2.80" arrival="42.00" arrivalLane="255925785#1_2" arrivalPos="33.09" arrivalSpeed="10.86" duration="37.00" routeLength="321.95" waitingTime="0.00" waitingCount="0" stopTime="0.00" timeLoss="11.30" rerouteNo="0" devices="tripinfo_22 fcd_22" vType="DEFAULT_VEHTYPE" speedFactor="0.99" vaporized=""/>
    <tripinfo id="92" depart="10.00" departLane="34475191#0_0" departPos="5.10" departSpeed="0.00" departDelay="0.80" arrival="42.00" arrivalLane="34474997#7_2" arrivalPos="79.79" arrivalSpeed="12.28" duration="32.00" routeLength="227.13" waitingTime="0.00" waitingCount="0" stopTime="0.00" timeLoss="6.06" rerouteNo="0" devices="tripinfo_92 fcd_92" vType="DEFAULT_VEHTYPE" speedFactor="0.94" vaporized=""/>
    <tripinfo id="183" depart="25.00" departLane="23162032#0_1" departPos="5.10" departSpeed="0.00" departDelay="6.70" arrival="50.00" arrivalLane="559702823#2_2" arrivalPos="48.65" arrivalSpeed="14.80" duration="25.00" routeLength="299.80" waitingTime="0.00" waitingCount="0" stopTime="0.00" timeLoss="4.72" rerouteNo="0" devices="tripinfo_183 fcd_183" vType="DEFAULT_VEHTYPE" speedFactor="1.07" vaporized=""/>
    <tripinfo id="172" depart="20.00" departLane="30098185#1_1" departPos="5.10" departSpeed="0.00" departDelay="2.80" arrival="54.00" arrivalLane="636388787#5_1" arrivalPos="25.91" arrivalSpeed="8.37" duration="34.00" routeLength="236.81" waitingTime="0.00" waitingCount="0" stopTime="0.00" timeLoss="4.84" rerouteNo="0" devices="tripinfo_172 fcd_172" vType="DEFAULT_VEHTYPE" speedFactor="1.02" vaporized=""/>
    <tripinfo id="343" depart="37.00" departLane="35902033#2_1" departPos="5.10" departSpeed="0.00" departDelay="2.70" arrival="58.00" arrivalLane="30098185#1_1" arrivalPos="57.15" arrivalSpeed="8.48" duration="21.00" routeLength="138.98" waitingTime="0.00" waitingCount="0" stopTime="0.00" timeLoss="3.70" rerouteNo="0" devices="tripinfo_343 fcd_343" vType="DEFAULT_VEHTYPE" speedFactor="1.02" vaporized=""/>
    <tripinfo id="139" depart="19.00" departLane="23162032#1_1" departPos="5.10" departSpeed="0.00" departDelay="5.10" arrival="59.00" arrivalLane="35902564#0_0" arrivalPos="87.63" arrivalSpeed="6.27" duration="40.00" routeLength="344.70" waitingTime="0.00" waitingCount="0" stopTime="0.00" timeLoss="16.30" rerouteNo="0" devices="tripinfo_139 fcd_139" vType="DEFAULT_VEHTYPE" speedFactor="1.09" vaporized=""/>
    <tripinfo id="465" depart="47.00" departLane="27131168#4_1" departPos="5.10" departSpeed="0.00" departDelay="0.50" arrival="60.00" arrivalLane="61279128#0_1" arrivalPos="46.57" arrivalSpeed="10.34" duration="13.00" routeLength="107.39" waitingTime="0.00" waitingCount="0" stopTime="0.00" timeLoss="3.21" rerouteNo="0" devices="tripinfo_465 fcd_465" vType="DEFAULT_VEHTYPE" speedFactor="1.02" vaporized=""/>
    <tripinfo id="39" depart="5.00" departLane="23162032#1_1" departPos="5.10" departSpeed="0.00" departDelay="1.10" arrival="61.00" arrivalLane="27131168#4_1" arrivalPos="36.47" arrivalSpeed="10.16" duration="56.00" routeLength="528.75" waitingTime="0.00" waitingCount="0" stopTime="0.00" timeLoss="8.48" rerouteNo="0" devices="tripinfo_39 fcd_39" vType="DEFAULT_VEHTYPE" speedFactor="0.92" vaporized=""/>
    <tripinfo id="214" depart="22.00" departLane="35903288#0_1" departPos="5.10" departSpeed="0.00" departDelay="0.60" arrival="61.00" arrivalLane="61279128#1_1" arrivalPos="111.57" arrivalSpeed="11.34" duration="39.00" routeLength="203.67" waitingTime="14.00" waitingCount="1" stopTime="0.00" timeLoss="21.53" rerouteNo="0" devices="tripinfo_214 fcd_214" vType="DEFAULT_VEHTYPE" speedFactor="1.12" vaporized=""/>
    <tripinfo id="77" depart="9.00" departLane="-766243192#1_0" departPos="5.10" departSpeed="0.00" departDelay="1.30" arrival="66.00" arrivalLane="23162032#1_3" arrivalPos="84.42" arrivalSpeed="11.91" duration="57.00" routeLength="606.14" waitingTime="0.00" waitingCount="0" stopTime="0.00" timeLoss="7.66" rerouteNo="0" devices="tripinfo_77 fcd_77" vType="DEFAULT_VEHTYPE" speedFactor="0.90" vaporized=""/>
    <tripinfo id="196" depart="20.00" departLane="27617819#0_0" departPos="5.10" departSpeed="0.00" departDelay="0.40" arrival="66.00" arrivalLane="35902033#1_1" arrivalPos="54.77" arrivalSpeed="6.53" duration="46.00" routeLength="176.30" waitingTime="13.00" waitingCount="2" stopTime="0.00" timeLoss="23.54" rerouteNo="0" devices="tripinfo_196 fcd_196" vType="DEFAULT_VEHTYPE" speedFactor="0.94" vaporized=""/>
    <tripinfo id="457" depart="46.00" departLane="35902033#3_1" departPos="5.10" departSpeed="0.00" departDelay="0.30" arrival="66.00" arrivalLane="34474997#7_2" arrivalPos="79.79" arrivalSpeed="10.40" duration="20.00" routeLength="165.35" waitingTime="0.00" waitingCount="0" stopTime="0.00" timeLoss="3.48" rerouteNo="0" devices="tripinfo_457 fcd_457" vType="DEFAULT_VEHTYPE" speedFactor="0.82" vaporized=""/>
    <tripinfo id="102" depart="11.00" departLane="358055191#1_1" departPos="5.10" departSpeed="0.00" departDelay="0.80" arrival="67.00" arrivalLane="23162032#1_3" arrivalPos="84.42" arrivalSpeed="13.47" duration="56.00" routeLength="340.54" waitingTime="11.00" waitingCount="2" stopTime="0.00" timeLoss="30.15" rerouteNo="0" devices="tripinfo_102 fcd_102" vType="DEFAULT_VEHTYPE" speedFactor="0.97" vaporized=""/>
    <tripinfo id="217" depart="28.00" departLane="35901833#0_0" departPos="5.10" departSpeed="0.00" departDelay="6.30" arrival="70.00" arrivalLane="-255925785#1_1" arrivalPos="33.09" arrivalSpeed="15.23" duration="42.00" routeLength="165.45" waitingTime="20.00" waitingCount="1" stopTime="0.00" timeLoss="30.39" rerouteNo="0" devices="tripinfo_217 fcd_217" vType="DEFAULT_VEHTYPE" speedFactor="1.18" vaporized=""/>
    <tripinfo id="91" depart="10.00" departLane="929226387#2_1" departPos="5.10" departSpeed="0.00" departDelay="0.90" arrival="73.00" arrivalLane="-627718562#1_0" arrivalPos="89.09" arrivalSpeed="13.11" duration="63.00" routeLength="506.40" waitingTime="0.00" waitingCount="0" stopTime="0.00" timeLoss="24.20" rerouteNo="0" devices="tripinfo_91 fcd_91" vType="DEFAULT_VEHTYPE" speedFactor="0.99" vaporized=""/>
    <tripinfo id="149" depart="23.00" departLane="-35901833#1_0" departPos="5.10" departSpeed="0.00" departDelay="8.10" arrival="73.00" arrivalLane="656659021_1" arrivalPos="25.01" arrivalSpeed="9.73" duration="50.00" routeLength="316.09" waitingTime="12.00" waitingCount="1" stopTime="0.00" timeLoss="23.38" rerouteNo="0" devices="tripinfo_149 fcd_149" vType="DEFAULT_VEHTYPE" speedFactor="0.95" vaporized=""/>
    <tripinfo id="440" depart="44.00" departLane="23162032#0_1" departPos="5.10" departSpeed="0.00" departDelay="0.00" arrival="73.00" arrivalLane="27617819#0_0" arrivalPos="18.50" arrivalSpeed="12.99" duration="29.00" routeLength="179.37" waitingTime="0.00" waitingCount="0" stopTime="0.00" timeLoss="15.68" rerouteNo="0" devices="tripinfo_440 fcd_440" vType="DEFAULT_VEHTYPE" speedFactor="1.07" vaporized=""/>
    <tripinfo id="335" depart="34.00" departLane="349851320#0_1" departPos="5.10" departSpeed="0.00" departDelay="0.50" arrival="74.00" arrivalLane="636388787#4_1" arrivalPos="24.76" arrivalSpeed="9.03" duration="40.00" routeLength="160.67" waitingTime="7.00" waitingCount="2" stopTime="0.00" timeLoss="21.83" rerouteNo="0" devices="tripinfo_335 fcd_335" vType="DEFAULT_VEHTYPE" speedFactor="1.13" vaporized=""/>
    <tripinfo id="292" depart="30.00" departLane="627718562#0_0" departPos="5.10" departSpeed="0.00" departDelay="0.80" arrival="78.00" arrivalLane="27131168#2_1" arrivalPos="15.85" arrivalSpeed="10.66" duration="48.00" routeLength="240.30" waitingTime="15.00" waitingCount="1" stopTime="0.00" timeLoss="29.12" rerouteNo="0" devices="tripinfo_292 fcd_292" vType="DEFAULT_VEHTYPE" speedFactor="1.10" vaporized=""/>
    <tripinfo id="365" depart="37.00" departLane="357575329_0" departPos="5.10" departSpeed="0.00" departDelay="0.50" arrival="78.00" arrivalLane="35903166#0_1" arrivalPos="30.29" arrivalSpeed="8.26" duration="41.00" routeLength="310.56" waitingTime="1.00" waitingCount="1" stopTime="0.00" timeLoss="8.18" rerouteNo="0" devices="tripinfo_365 fcd_365" vType="DEFAULT_VEHTYPE" speedFactor="0.75" vaporized=""/>
    <tripinfo id="173" depart="18.00" departLane="817140099#0_1" departPos="5.10" departSpeed="0.00" departDelay="0.70" arrival="79.00" arrivalLane="30098185#0_1" arrivalPos="25.07" arrivalSpeed="6.52" duration="61.00" routeLength="148.78" waitingTime="35.00" waitingCount="1" stopTime="0.00" timeLoss="46.47" rerouteNo="0" devices="tripinfo_173 fcd_173" vType="DEFAULT_VEHTYPE" speedFactor="1.06" vaporized=""/>
    <tripinfo id="58" depart="6.00" departLane="27617819#0_0" departPos="5.10" departSpeed="0.00" departDelay="0.20" arrival="80.00" arrivalLane="35902564#2_0" arrivalPos="46.49" arrivalSpeed="8.47" duration="74.00" routeLength="351.05" waitingTime="22.00" waitingCount="2" stopTime="0.00" timeLoss="46.10" rerouteNo="0" devices="tripinfo_58 fcd_58" vType="DEFAULT_VEHTYPE" speedFactor="0.96" vaporized=""/>
    <tripinfo id="329" depart="36.00" departLane="-35901833#1_0" departPos="5.10" departSpeed="0.00" departDelay="3.10" arrival="81.00" arrivalLane="146544718#1_0" arrivalPos="96.41" arrivalSpeed="12.26" duration="45.00" routeLength="432.11" waitingTime="1.00" waitingCount="1" stopTime="0.00" timeLoss="11.87" rerouteNo="0" devices="tripinfo_329 fcd_329" vType="DEFAULT_VEHTYPE" speedFactor="0.96" vaporized=""/>
    <tripinfo id="414" depart="44.00" departLane="35902033#1_1" departPos="5.10" departSpeed="0.00" departDelay="2.60" arrival="82.00" arrivalLane="636388787#6_1" arrivalPos="33.39" arrivalSpeed="7.62" duration="38.00" routeLength="258.77" waitingTime="0.00" waitingCount="0" stopTime="0.00" timeLoss="5.99" rerouteNo="0" devices="tripinfo_414 fcd_414" vType="DEFAULT_VEHTYPE" speedFactor="0.98" vaporized=""/>
    <tripinfo id="50" depart="5.00" departLane="-146544718#0_0" departPos="5.10" departSpeed="0.00" departDelay="0.00" arrival="84.00" arrivalLane="559702823#3_2" arrivalPos="68.54" arrivalSpeed="12.90" duration="79.00" routeLength="926.61" waitingTime="0.00" waitingCount="0" stopTime="0.00" timeLoss="12.55" rerouteNo="0" devices="tripinfo_50 fcd_50" vType="DEFAULT_VEHTYPE" speedFactor="1.02" vaporized=""/>
    <tripinfo id="26" depart="3.00" departLane="23162032#1_1" departPos="5.10" departSpeed="0.00" departDelay="0.40" arrival="87.00" arrivalLane="766243192#0_0" arrivalPos="255.64" arrivalSpeed="12.00" duration="84.00" routeLength="841.65" waitingTime="0.00" waitingCount="0" stopTime="0.00" timeLoss="17.39" rerouteNo="0" devices="tripinfo_26 fcd_26" vType="DEFAULT_VEHTYPE" speedFactor="0.94" vaporized=""/>
    <tripinfo id="129" depart="14.00" departLane="23162032#1_1" departPos="5.10" departSpeed="0.00" departDelay="1.10" arrival="88.00" arrivalLane="766243192#0_1" arrivalPos="255.64" arrivalSpeed="12.82" duration="74.00" routeLength="841.65" waitingTime="0.00" waitingCount="0" stopTime="0.00" timeLoss="12.75" rerouteNo="0" devices="tripinfo_129 fcd_129" vType="DEFAULT_VEHTYPE" speedFactor="1.01" vaporized=""/>
    <tripinfo id="188" depart="19.00" departLane="35902564#1_0" departPos="5.10" departSpeed="0.00" departDelay="0.20" arrival="89.00" arrivalLane="34474997#4_2" arrivalPos="38.81" arrivalSpeed="13.47" duration="70.00" routeLength="336.39" waitingTime="18.00" waitingCount="3" stopTime="0.00" timeLoss="45.06" rerouteNo="0" devices="tripinfo_188 fcd_188" vType="DEFAULT_VEHTYPE" speedFactor="1.01" vaporized=""/>
    <tripinfo id="384" depart="39.00" departLane="-766243192#1_0" departPos="5.10" departSpeed="0.00" departDelay="0.60" arrival="91.00" arrivalLane="838607006_0" arrivalPos="16.01" arrivalSpeed="10.42" duration="52.00" routeLength="417.53" waitingTime="2.00" waitingCount="1" stopTime="0.00" timeLoss="16.74" rerouteNo="0" devices="tripinfo_384 fcd_384" vType="DEFAULT_VEHTYPE" speedFactor="0.85" vaporized=""/>
    <tripinfo id="260" depart="26.00" departLane="934005397_0" departPos="5.10" departSpeed="0.00" departDelay="0.00" arrival="93.00" arrivalLane="34474997#7_2" arrivalPos="79.79" arrivalSpeed="12.10" duration="67.00" routeLength="401.14" waitingTime="13.00" waitingCount="1" stopTime="0.00" timeLoss="20.57" rerouteNo="0" devices="tripinfo_260 fcd_260" vType="DEFAULT_VEHTYPE" speedFactor="0.90" vaporized=""/>
    <tripinfo id="125" depart="13.00" departLane="27617860_0" departPos="5.10" departSpeed="0.00" departDelay="0.50" arrival="94.00" arrivalLane="61279128#1_1" arrivalPos="111.57" arrivalSpeed="11.80" duration="81.00" routeLength="640.14" waitingTime="14.00" waitingCount="1" stopTime="0.00" timeLoss="32.05" rerouteNo="0" devices="tripinfo_125 fcd_125" vType="DEFAULT_VEHTYPE" speedFactor="1.15" vaporized=""/>
    <tripinfo id="285" depart="41.00" departLane="35902785#0_0" departPos="5.10" departSpeed="0.00" departDelay="12.50" arrival="94.00" arrivalLane="358055191#1_1" arrivalPos="79.84" arrivalSpeed="10.67" duration="53.00" routeLength="590.02" waitingTime="0.00" waitingCount="0" stopTime="0.00" timeLoss="9.24" rerouteNo="0" devices="tripinfo_285 fcd_285" vType="DEFAULT_VEHTYPE" speedFactor="0.97" vaporized=""/>
    <tripinfo id="85" depart="9.00" departLane="654492156_1" departPos="5.10" departSpeed="0.00" departDelay="0.50" arrival="95.00" arrivalLane="35902033#3_1" arrivalPos="26.13" arrivalSpeed="8.34" duration="86.00" routeLength="414.97" waitingTime="14.00" waitingCount="2" stopTime="0.00" timeLoss="49.95" rerouteNo="0" devices="tripinfo_85 fcd_85" vType="DEFAULT_VEHTYPE" speedFactor="1.12" vaporized=""/>
    <tripinfo id="96" depart="10.00" departLane="23162032#0_1" departPos="5.10" departSpeed="0.00" departDelay="0.40" arrival="96.00" arrivalLane="766243192#0_0" arrivalPos="255.64" arrivalSpeed="12.51" duration="86.00" routeLength="887.23" waitingTime="0.00" waitingCount="0" stopTime="0.00" timeLoss="13.47" rerouteNo="0" devices="tripinfo_96 fcd_96" vType="DEFAULT_VEHTYPE" speedFactor="0.91" vaporized=""/>
    <tripinfo id="154" depart="16.00" departLane="559702823#2_1" departPos="5.10" departSpeed="0.00" departDelay="0.60" arrival="96.00" arrivalLane="636388787#4_1" arrivalPos="24.76" arrivalSpeed="7.78" duration="80.00" routeLength="343.35" waitingTime="16.00" waitingCount="3" stopTime="0.00" timeLoss="45.16" rerouteNo="0" devices="tripinfo_154 fcd_154" vType="DEFAULT_VEHTYPE" speedFactor="1.03" vaporized=""/>
    <tripinfo id="360" depart="53.00" departLane="-627718562#1_0" departPos="5.10" departSpeed="0.00" departDelay="17.00" arrival="98.00" arrivalLane="766243192#0_1" arrivalPos="255.64" arrivalSpeed="12.69" duration="45.00" routeLength="513.99" waitingTime="0.00" waitingCount="0" stopTime="0.00" timeLoss="5.67" rerouteNo="0" devices="tripinfo_360 fcd_360" vType="DEFAULT_VEHTYPE" speedFactor="0.96" vaporized=""/>
    <tripinfo id="278" depart="32.00" departLane="-766243192#1_0" departPos="5.10" departSpeed="0.00" departDelay="4.20" arrival="100.00" arrivalLane="929226387#1_2" arrivalPos="22.53" arrivalSpeed="11.93" duration="68.00" routeLength="421.74" waitingTime="18.00" waitingCount="2" stopTime="0.00" timeLoss="35.35" rerouteNo="0" devices="tripinfo_278 fcd_278" vType="DEFAULT_VEHTYPE" speedFactor="0.95" vaporized=""/>
    <tripinfo id="137" depart="14.00" departLane="-766243192#1_0" departPos="5.10" departSpeed="0.00" departDelay="0.30" arrival="102.00" arrivalLane="1280111588_0" arrivalPos="82.04" arrivalSpeed="11.13" duration="88.00" routeLength="615.53" waitingTime="21.00" waitingCount="1" stopTime="0.00" timeLoss="33.90" rerouteNo="0" devices="tripinfo_137 fcd_137" vType="DEFAULT_VEHTYPE" speedFactor="0.83" vaporized=""/>
    <tripinfo id="68" depart="8.00" departLane="-35901833#1_0" departPos="5.10" departSpeed="0.00" departDelay="1.20" arrival="103.00" arrivalLane="61279128#1_1" arrivalPos="111.57" arrivalSpeed="9.28" duration="95.00" routeLength="623.46" waitingTime="23.00" waitingCount="1" stopTime="0.00" timeLoss="33.26" rerouteNo="0" devices="tripinfo_68 fcd_68" vType="DEFAULT_VEHTYPE" speedFactor="0.85" vaporized=""/>
    <tripinfo id="152" depart="20.00" departLane="-766243192#1_0" departPos="5.10" departSpeed="0.00" departDelay="4.80" arrival="106.00" arrivalLane="1280111588_0" arrivalPos="82.04" arrivalSpeed="13.95" duration="86.00" routeLength="615.53" waitingTime="24.00" waitingCount="2" stopTime="0.00" timeLoss="44.12" rerouteNo="0" devices="tripinfo_152 fcd_152" vType="DEFAULT_VEHTYPE" speedFactor="1.07" vaporized=""/>
    <tripinfo id="279" depart="28.00" departLane="559702823#0_1" departPos="5.10" departSpeed="0.00" departDelay="0.10" arrival="106.00" arrivalLane="34474997#7_2" arrivalPos="79.79" arrivalSpeed="11.09" duration="78.00" routeLength="422.94" waitingTime="10.00" waitingCount="1" stopTime="0.00" timeLoss="33.19" rerouteNo="0" devices="tripinfo_279 fcd_279" vType="DEFAULT_VEHTYPE" speedFactor="0.87" vaporized=""/>
    <tripinfo id="147" depart="17.00" departLane="35902785#0_0" departPos="5.10" departSpeed="0.00" departDelay="2.30" arrival="109.00" arrivalLane="35902033#1_1" arrivalPos="54.77" arrivalSpeed="7.86" duration="92.00" routeLength="531.69" waitingTime="29.00" waitingCount="1" stopTime="0.00" timeLoss="42.69" rerouteNo="0" devices="tripinfo_147 fcd_147" vType="DEFAULT_VEHTYPE" speedFactor="0.97" vaporized=""/>
    <tripinfo id="212" depart="22.00" departLane="358055191#1_1" departPos="5.10" departSpeed="0.00" departDelay="0.80" arrival="109.00" arrivalLane="27131168#2_1" arrivalPos="15.85" arrivalSpeed="10.97" duration="87.00" routeLength="562.49" waitingTime="11.00" waitingCount="2" stopTime="0.00" timeLoss="44.73" rerouteNo="0" devices="tripinfo_212 fcd_212" vType="DEFAULT_VEHTYPE" speedFactor="1.06" vaporized=""/>
    <tripinfo id="70" depart="7.00" departLane="358055191#0_1" departPos="5.10" departSpeed="0.00" departDelay="0.00" arrival="111.00" arrivalLane="35902033#1_1" arrivalPos="54.77" arrivalSpeed="8.62" duration="104.00" routeLength="605.99" waitingTime="5.00" waitingCount="3" stopTime="0.00" timeLoss="58.20" rerouteNo="0" devices="tripinfo_70 fcd_70" vType="DEFAULT_VEHTYPE" speedFactor="1.17" vaporized=""/>
    <tripinfo id="482" depart="50.00" departLane="-766243192#1_0" departPos="5.10" departSpeed="0.00" departDelay="1.80" arrival="111.00" arrivalLane="27131168#0_1" arrivalPos="34.16" arrivalSpeed="11.10" duration="61.00" routeLength="650.54" waitingTime="0.00" waitingCount="0" stopTime="0.00" timeLoss="10.10" rerouteNo="0" devices="tripinfo_482 fcd_482" vType="DEFAULT_VEHTYPE" speedFactor="1.00" vaporized=""/>
    <tripinfo id="490" depart="55.00" departLane="-766243192#1_0" departPos="5.10" departSpeed="0.00" departDelay="6.00" arrival="112.00" arrivalLane="656659021_1" arrivalPos="25.01" arrivalSpeed="9.87" duration="57.00" routeLength="601.08" waitingTime="0.00" waitingCount="0" stopTime="0.00" timeLoss="5.98" rerouteNo="0" devices="tripinfo_490 fcd_490" vType="DEFAULT_VEHTYPE" speedFactor="0.90" vaporized=""/>
    <tripinfo id="67" depart="8.00" departLane="-627718562#1_0" departPos="5.10" departSpeed="0.00" departDelay="1.30" arrival="114.00" arrivalLane="35901883#1_0" arrivalPos="33.71" arrivalSpeed="6.73" duration="106.00" routeLength="741.83" waitingTime="0.00" waitingCount="0" stopTime="0.00" timeLoss="36.71" rerouteNo="0" devices="tripinfo_67 fcd_67" vType="DEFAULT_VEHTYPE" speedFactor="0.85" vaporized=""/>
    <tripinfo id="304" depart="33.00" departLane="-627718562#1_0" departPos="5.10" departSpeed="0.00" departDelay="2.60" arrival="115.00" arrivalLane="23162032#1_3" arrivalPos="84.42" arrivalSpeed="15.47" duration="82.00" routeLength="570.40" waitingTime="10.00" waitingCount="1" stopTime="0.00" timeLoss="45.17" rerouteNo="0" devices="tripinfo_304 fcd_304" vType="DEFAULT_VEHTYPE" speedFactor="1.15" vaporized=""/>
    <tripinfo id="164" depart="32.00" departLane="559702823#3_1" departPos="5.10" departSpeed="0.00" departDelay="15.60" arrival="119.00" arrivalLane="636388787#5_1" arrivalPos="25.91" arrivalSpeed="8.68" duration="87.00" routeLength="323.63" waitingTime="24.00" waitingCount="3" stopTime="0.00" timeLoss="55.59" rerouteNo="0" devices="tripinfo_164 fcd_164" vType="DEFAULT_VEHTYPE" speedFactor="1.18" vaporized=""/>
    <tripinfo id="142" depart="15.00" departLane="358055191#1_1" departPos="5.10" departSpeed="0.00" departDelay="0.80" arrival="124.00" arrivalLane="765527988#2_0" arrivalPos="40.02" arrivalSpeed="11.38" duration="109.00" routeLength="560.50" waitingTime="11.00" waitingCount="2" stopTime="0.00" timeLoss="63.31" rerouteNo="0" devices="tripinfo_142 fcd_142" vType="DEFAULT_VEHTYPE" speedFactor="0.91" vaporized=""/>
    <tripinfo id="300" depart="30.00" departLane="-627718562#1_0" departPos="5.10" departSpeed="0.00" departDelay="0.00" arrival="125.00" arrivalLane="559702823#3_3" arrivalPos="68.54" arrivalSpeed="13.68" duration="95.00" routeLength="826.17" waitingTime="12.00" waitingCount="2" stopTime="0.00" timeLoss="37.68" rerouteNo="0" devices="tripinfo_300 fcd_300" vType="DEFAULT_VEHTYPE" speedFactor="1.07" vaporized=""/>
    <tripinfo id="66" depart="8.00" departLane="627718562#0_0" departPos="5.10" departSpeed="0.00" departDelay="1.40" arrival="126.00" arrivalLane="766243192#0_0" arrivalPos="255.64" arrivalSpeed="11.12" duration="118.00" routeLength="607.67" waitingTime="29.00" waitingCount="2" stopTime="0.00" timeLoss="67.08" rerouteNo="0" devices="tripinfo_66 fcd_66" vType="DEFAULT_VEHTYPE" speedFactor="0.88" vaporized=""/>
    <tripinfo id="373" depart="46.00" departLane="591569083_1" departPos="5.10" departSpeed="0.00" departDelay="8.70" arrival="126.00" arrivalLane="35902033#1_1" arrivalPos="54.77" arrivalSpeed="8.01" duration="80.00" routeLength="476.65" waitingTime="0.00" waitingCount="0" stopTime="0.00" timeLoss="35.32" rerouteNo="0" devices="tripinfo_373 fcd_373" vType="DEFAULT_VEHTYPE" speedFactor="0.98" vaporized=""/>
    <tripinfo id="483" depart="49.00" departLane="-146544718#1_0" departPos="5.10" departSpeed="0.00" departDelay="0.70" arrival="127.00" arrivalLane="656659021_2" arrivalPos="25.01" arrivalSpeed="10.46" duration="78.00" routeLength="275.86" waitingTime="44.00" waitingCount="1" stopTime="0.00" timeLoss="54.81" rerouteNo="0" devices="tripinfo_483 fcd_483" vType="DEFAULT_VEHTYPE" speedFactor="0.95" vaporized=""/>
    <tripinfo id="314" depart="32.00" departLane="358055191#1_1" departPos="5.10" departSpeed="0.00" departDelay="0.60" arrival="129.00" arrivalLane="559702823#4_2" arrivalPos="63.38" arrivalSpeed="15.25" duration="97.00" routeLength="671.66" waitingTime="12.00" waitingCount="4" stopTime="0.00" timeLoss="52.71" rerouteNo="0" devices="tripinfo_314 fcd_314" vType="DEFAULT_VEHTYPE" speedFactor="1.11" vaporized=""/>
    <tripinfo id="264" depart="32.00" departLane="-146544718#1_0" departPos="5.10" departSpeed="0.00" departDelay="5.60" arrival="134.00" arrivalLane="146544718#1_2" arrivalPos="96.41" arrivalSpeed="14.27" duration="102.00" routeLength="366.72" waitingTime="61.00" waitingCount="1" stopTime="0.00" timeLoss="77.02" rerouteNo="0" devices="tripinfo_264 fcd_264" vType="DEFAULT_VEHTYPE" speedFactor="1.10" vaporized=""/>
    <tripinfo id="130" depart="13.00" departLane="627718562#0_0" departPos="5.10" departSpeed="0.00" departDelay="0.00" arrival="136.00" arrivalLane="654492156_2" arrivalPos="29.49" arrivalSpeed="12.97" duration="123.00" routeLength="724.17" waitingTime="38.00" waitingCount="1" stopTime="0.00" timeLoss="69.94" rerouteNo="0" devices="tripinfo_130 fcd_130" vType="DEFAULT_VEHTYPE" speedFactor="1.02" vaporized=""/>
    <tripinfo id="65" depart="7.00" departLane="27617819#3_0" departPos="5.10" departSpeed="0.00" departDelay="0.50" arrival="139.00" arrivalLane="-35901833#1_2" arrivalPos="115.37" arrivalSpeed="11.63" duration="132.00" routeLength="611.18" waitingTime="34.00" waitingCount="3" stopTime="0.00" timeLoss="79.46" rerouteNo="0" devices="tripinfo_65 fcd_65" vType="DEFAULT_VEHTYPE" speedFactor="0.90" vaporized=""/>
    <tripinfo id="283" depart="35.00" departLane="-766243192#1_0" departPos="5.10" departSpeed="0.00" departDelay="6.70" arrival="139.00" arrivalLane="766243192#0_0" arrivalPos="255.64" arrivalSpeed="14.18" duration="104.00" routeLength="637.69" waitingTime="30.00" waitingCount="3" stopTime="0.00" timeLoss="57.36" rerouteNo="0" devices="tripinfo_283 fcd_283" vType="DEFAULT_VEHTYPE" speedFactor="1.02" vaporized=""/>