<?xml version="1.0" encoding="UTF-8"?>

<!-- generated on 2024-07-18 20:29:51 by Eclipse SUMO GUI Version 1.20.0
<configuration xmlns:xsi="http://www.w3.org/2001/XMLSchema-instance" xsi:noNamespaceSchemaLocation="http://sumo.dlr.de/xsd/sumoConfiguration.xsd">

    <input>
        <net-file value="C:\Users\j9902\Desktop\sumo desktop\final.net.xml"/>
        <route-files value="C:\Users\j9902\Desktop\sumo desktop\final.rou.xml"/>
    </input>

    <output>
        <fcd-output value="C:\Users\j9902\Desktop\sumo desktop\fcd.xml"/>
        <tripinfo-output value="C:\Users\j9902\Desktop\sumo desktop\tripinfo.xml"/>
    </output>

    <time>
        <begin value="0"/>
        <end value="200"/>
    </time>

</configuration>
-->

<fcd-export xmlns:xsi="http://www.w3.org/2001/XMLSchema-instance" xsi:noNamespaceSchemaLocation="http://sumo.dlr.de/xsd/fcd_file.xsd">
    <timestep time="0.00"/>
    <timestep time="1.00"/>
    <timestep time="2.00"/>
    <timestep time="3.00"/>
    <timestep time="4.00"/>
    <timestep time="5.00"/>
    <timestep time="6.00"/>
    <timestep time="7.00"/>
    <timestep time="8.00"/>
    <timestep time="9.00"/>
    <timestep time="10.00"/>
    <timestep time="11.00"/>
    <timestep time="12.00"/>
    <timestep time="13.00"/>
    <timestep time="14.00"/>
    <timestep time="15.00"/>
    <timestep time="16.00"/>
    <timestep time="17.00"/>
    <timestep time="18.00"/>
    <timestep time="19.00"/>
    <timestep time="20.00"/>
    <timestep time="21.00"/>
    <timestep time="22.00"/>
    <timestep time="23.00"/>
    <timestep time="24.00"/>
    <timestep time="25.00"/>
    <timestep time="26.00"/>
    <timestep time="27.00"/>
    <timestep time="28.00"/>
    <timestep time="29.00"/>
    <timestep time="30.00"/>
    <timestep time="31.00"/>
    <timestep time="32.00"/>
    <timestep time="33.00"/>
    <timestep time="34.00"/>
    <timestep time="35.00"/>
    <timestep time="36.00"/>
    <timestep time="37.00"/>
    <timestep time="38.00"/>
    <timestep time="39.00"/>
    <timestep time="40.00"/>
    <timestep time="41.00"/>
    <timestep time="42.00"/>
    <timestep time="43.00"/>
    <timestep time="44.00"/>
    <timestep time="45.00"/>
    <timestep time="46.00"/>
    <timestep time="47.00"/>
    <timestep time="48.00"/>
    <timestep time="49.00"/>
    <timestep time="50.00"/>
    <timestep time="51.00"/>
    <timestep time="52.00"/>
    <timestep time="53.00"/>
    <timestep time="54.00"/>
    <timestep time="55.00"/>
    <timestep time="56.00"/>
    <timestep time="57.00"/>
    <timestep time="58.00"/>
    <timestep time="59.00"/>
    <timestep time="60.00"/>
    <timestep time="61.00"/>
    <timestep time="62.00"/>
    <timestep time="63.00"/>
    <timestep time="64.00"/>
    <timestep time="65.00"/>
    <timestep time="66.00"/>
    <timestep time="67.00"/>
    <timestep time="68.00"/>
    <timestep time="69.00"/>
    <timestep time="70.00"/>
    <timestep time="71.00"/>
    <timestep time="72.00"/>
    <timestep time="73.00"/>
    <timestep time="74.00"/>
    <timestep time="75.00"/>
    <timestep time="76.00"/>
    <timestep time="77.00"/>
    <timestep time="78.00"/>
    <timestep time="79.00"/>
    <timestep time="80.00"/>
    <timestep time="81.00"/>
    <timestep time="82.00"/>
    <timestep time="83.00"/>
    <timestep time="84.00"/>
    <timestep time="85.00"/>
    <timestep time="86.00"/>
    <timestep time="87.00"/>
    <timestep time="88.00"/>
    <timestep time="89.00"/>
    <timestep time="90.00"/>
    <timestep time="91.00"/>
    <timestep time="92.00"/>
    <timestep time="93.00"/>
    <timestep time="94.00"/>
    <timestep time="95.00"/>
    <timestep time="96.00"/>
    <timestep time="97.00"/>
    <timestep time="98.00"/>
    <timestep time="99.00"/>
    <timestep time="100.00">
        <vehicle id="veh0" x="-194.90" y="95.29" angle="90.06" type="CarA" speed="0.00" pos="5.10" lane="D2_0" slope="0.00"/>
        <vehicle id="veh3" x="-194.90" y="-4.80" angle="90.00" type="CarA" speed="0.00" pos="5.10" lane="D4_0" slope="0.00"/>
        <vehicle id="veh6" x="394.90" y="4.80" angle="270.00" type="CarA" speed="0.00" pos="5.10" lane="D6_0" slope="0.00"/>
        <vehicle id="veh9" x="394.90" y="104.80" angle="270.00" type="CarA" speed="0.00" pos="5.10" lane="D8_0" slope="0.00"/>
    </timestep>
    <timestep time="101.00">
        <vehicle id="veh0" x="-192.64" y="95.29" angle="90.06" type="CarA" speed="2.26" pos="7.36" lane="D2_0" slope="0.00"/>
        <vehicle id="veh3" x="-192.98" y="-4.80" angle="90.00" type="CarA" speed="1.92" pos="7.02" lane="D4_0" slope="0.00"/>
        <vehicle id="veh6" x="392.84" y="4.80" angle="270.00" type="CarA" speed="2.06" pos="7.16" lane="D6_0" slope="0.00"/>
        <vehicle id="veh9" x="393.02" y="104.80" angle="270.00" type="CarA" speed="1.88" pos="6.98" lane="D8_0" slope="0.00"/>
    </timestep>
    <timestep time="102.00">
        <vehicle id="veh0" x="-187.51" y="95.29" angle="90.06" type="CarA" speed="5.13" pos="12.49" lane="D2_0" slope="0.00"/>
        <vehicle id="veh3" x="-188.33" y="-4.80" angle="90.00" type="CarA" speed="4.65" pos="11.67" lane="D4_0" slope="0.00"/>
        <vehicle id="veh6" x="388.50" y="4.80" angle="270.00" type="CarA" speed="4.34" pos="11.50" lane="D6_0" slope="0.00"/>
        <vehicle id="veh9" x="389.25" y="104.80" angle="270.00" type="CarA" speed="3.77" pos="10.75" lane="D8_0" slope="0.00"/>
    </timestep>
    <timestep time="103.00">
        <vehicle id="veh0" x="-180.79" y="95.28" angle="90.06" type="CarA" speed="6.72" pos="19.21" lane="D2_0" slope="0.00"/>
        <vehicle id="veh1" x="-194.90" y="95.29" angle="90.06" type="CarA" speed="0.00" pos="5.10" lane="D2_0" slope="0.00"/>
        <vehicle id="veh10" x="394.90" y="104.80" angle="270.00" type="CarA" speed="0.00" pos="5.10" lane="D8_0" slope="0.00"/>
        <vehicle id="veh3" x="-180.70" y="-4.80" angle="90.00" type="CarA" speed="7.62" pos="19.30" lane="D4_0" slope="0.00"/>
        <vehicle id="veh4" x="-194.90" y="-4.80" angle="90.00" type="CarA" speed="0.00" pos="5.10" lane="D4_0" slope="0.00"/>
        <vehicle id="veh6" x="382.17" y="4.80" angle="270.00" type="CarA" speed="6.33" pos="17.83" lane="D6_0" slope="0.00"/>
        <vehicle id="veh7" x="394.90" y="4.80" angle="270.00" type="CarA" speed="0.00" pos="5.10" lane="D6_0" slope="0.00"/>
        <vehicle id="veh9" x="383.48" y="104.80" angle="270.00" type="CarA" speed="5.77" pos="16.52" lane="D8_0" slope="0.00"/>
    </timestep>
    <timestep time="104.00">
        <vehicle id="veh0" x="-171.32" y="95.27" angle="90.06" type="CarA" speed="9.47" pos="28.68" lane="D2_0" slope="0.00"/>
        <vehicle id="veh1" x="-193.24" y="95.29" angle="90.06" type="CarA" speed="1.66" pos="6.76" lane="D2_0" slope="0.00"/>
        <vehicle id="veh10" x="392.62" y="104.80" angle="270.00" type="CarA" speed="2.28" pos="7.38" lane="D8_0" slope="0.00"/>
        <vehicle id="veh3" x="-170.27" y="-4.80" angle="90.00" type="CarA" speed="10.43" pos="29.73" lane="D4_0" slope="0.00"/>
        <vehicle id="veh4" x="-192.06" y="-4.80" angle="90.00" type="CarA" speed="2.84" pos="7.94" lane="D4_0" slope="0.00"/>
        <vehicle id="veh6" x="373.65" y="4.80" angle="270.00" type="CarA" speed="8.51" pos="26.35" lane="D6_0" slope="0.00"/>
        <vehicle id="veh7" x="392.38" y="4.80" angle="270.00" type="CarA" speed="2.52" pos="7.62" lane="D6_0" slope="0.00"/>
        <vehicle id="veh9" x="375.67" y="104.80" angle="270.00" type="CarA" speed="7.81" pos="24.33" lane="D8_0" slope="0.00"/>
    </timestep>
    <timestep time="105.00">
        <vehicle id="veh0" x="-160.23" y="95.26" angle="90.06" type="CarA" speed="11.09" pos="39.78" lane="D2_0" slope="0.00"/>
        <vehicle id="veh1" x="-189.19" y="95.29" angle="90.06" type="CarA" speed="4.05" pos="10.81" lane="D2_0" slope="0.00"/>
        <vehicle id="veh10" x="388.32" y="104.80" angle="270.00" type="CarA" speed="4.30" pos="11.68" lane="D8_0" slope="0.00"/>
        <vehicle id="veh3" x="-158.23" y="-4.80" angle="90.00" type="CarA" speed="12.04" pos="41.77" lane="D4_0" slope="0.00"/>
        <vehicle id="veh4" x="-186.52" y="-4.80" angle="90.00" type="CarA" speed="5.54" pos="13.48" lane="D4_0" slope="0.00"/>
        <vehicle id="veh5" x="-194.90" y="-4.80" angle="90.00" type="CarA" speed="0.00" pos="5.10" lane="D4_0" slope="0.00"/>
        <vehicle id="veh6" x="362.32" y="1.60" angle="270.00" type="CarA" speed="11.34" pos="37.68" lane="D6_1" slope="0.00"/>
        <vehicle id="veh7" x="388.04" y="4.80" angle="270.00" type="CarA" speed="4.34" pos="11.96" lane="D6_0" slope="0.00"/>
        <vehicle id="veh9" x="365.56" y="104.80" angle="270.00" type="CarA" speed="10.11" pos="34.44" lane="D8_0" slope="0.00"/>
    </timestep>
    <timestep time="106.00">
        <vehicle id="veh0" x="-147.35" y="95.25" angle="90.06" type="CarA" speed="12.88" pos="52.66" lane="D2_0" slope="0.00"/>
        <vehicle id="veh1" x="-182.15" y="95.28" angle="90.06" type="CarA" speed="7.04" pos="17.85" lane="D2_0" slope="0.00"/>
        <vehicle id="veh10" x="381.32" y="104.80" angle="270.00" type="CarA" speed="7.00" pos="18.68" lane="D8_0" slope="0.00"/>
        <vehicle id="veh11" x="394.90" y="104.80" angle="270.00" type="CarA" speed="0.00" pos="5.10" lane="D8_0" slope="0.00"/>
        <vehicle id="veh2" x="-194.90" y="95.29" angle="90.06" type="CarA" speed="0.00" pos="5.10" lane="D2_0" slope="0.00"/>
        <vehicle id="veh3" x="-143.29" y="-4.80" angle="90.00" type="CarA" speed="14.95" pos="56.71" lane="D4_0" slope="0.00"/>
        <vehicle id="veh4" x="-178.61" y="-4.80" angle="90.00" type="CarA" speed="7.91" pos="21.39" lane="D4_0" slope="0.00"/>
        <vehicle id="veh5" x="-194.12" y="-4.80" angle="90.00" type="CarA" speed="0.78" pos="5.88" lane="D4_0" slope="0.00"/>
        <vehicle id="veh6" x="348.22" y="1.60" angle="270.00" type="CarA" speed="14.09" pos="51.78" lane="D6_1" slope="0.00"/>
        <vehicle id="veh7" x="380.72" y="4.80" angle="270.00" type="CarA" speed="7.32" pos="19.28" lane="D6_0" slope="0.00"/>
        <vehicle id="veh8" x="394.90" y="4.80" angle="270.00" type="CarA" speed="0.00" pos="5.10" lane="D6_0" slope="0.00"/>
        <vehicle id="veh9" x="355.13" y="104.80" angle="270.00" type="CarA" speed="10.43" pos="44.87" lane="D8_0" slope="0.00"/>
    </timestep>
    <timestep time="107.00">
        <vehicle id="veh0" x="-133.27" y="95.23" angle="90.06" type="CarA" speed="14.08" pos="66.74" lane="D2_0" slope="0.00"/>
        <vehicle id="veh1" x="-173.48" y="95.27" angle="90.06" type="CarA" speed="8.67" pos="26.52" lane="D2_0" slope="0.00"/>
        <vehicle id="veh10" x="372.76" y="104.80" angle="270.00" type="CarA" speed="8.56" pos="27.24" lane="D8_0" slope="0.00"/>
        <vehicle id="veh11" x="392.58" y="104.80" angle="270.00" type="CarA" speed="2.32" pos="7.42" lane="D8_0" slope="0.00"/>
        <vehicle id="veh2" x="-192.89" y="95.29" angle="90.06" type="CarA" speed="2.01" pos="7.11" lane="D2_0" slope="0.00"/>
        <vehicle id="veh3" x="-128.40" y="-4.80" angle="90.00" type="CarA" speed="14.89" pos="71.60" lane="D4_0" slope="0.00"/>
        <vehicle id="veh4" x="-168.05" y="-4.80" angle="90.00" type="CarA" speed="10.56" pos="31.95" lane="D4_0" slope="0.00"/>
        <vehicle id="veh5" x="-191.45" y="-4.80" angle="90.00" type="CarA" speed="2.66" pos="8.55" lane="D4_0" slope="0.00"/>
        <vehicle id="veh6" x="335.15" y="1.60" angle="270.00" type="CarA" speed="13.07" pos="64.85" lane="D6_1" slope="0.00"/>
        <vehicle id="veh7" x="370.85" y="4.80" angle="270.00" type="CarA" speed="9.87" pos="29.15" lane="D6_0" slope="0.00"/>
        <vehicle id="veh8" x="393.34" y="4.80" angle="270.00" type="CarA" speed="1.56" pos="6.66" lane="D6_0" slope="0.00"/>
        <vehicle id="veh9" x="343.43" y="104.80" angle="270.00" type="CarA" speed="11.70" pos="56.57" lane="D8_0" slope="0.00"/>
    </timestep>
    <timestep time="108.00">
        <vehicle id="veh0" x="-118.56" y="95.22" angle="90.06" type="CarA" speed="14.71" pos="81.45" lane="D2_0" slope="0.00"/>
        <vehicle id="veh1" x="-162.50" y="95.26" angle="90.06" type="CarA" speed="10.98" pos="37.50" lane="D2_0" slope="0.00"/>
        <vehicle id="veh10" x="362.13" y="104.80" angle="270.00" type="CarA" speed="10.63" pos="37.87" lane="D8_0" slope="0.00"/>
        <vehicle id="veh11" x="388.58" y="104.80" angle="270.00" type="CarA" speed="4.00" pos="11.42" lane="D8_0" slope="0.00"/>
        <vehicle id="veh2" x="-188.01" y="95.29" angle="90.06" type="CarA" speed="4.88" pos="12.00" lane="D2_0" slope="0.00"/>
        <vehicle id="veh3" x="-113.50" y="-4.80" angle="90.00" type="CarA" speed="14.90" pos="86.50" lane="D4_0" slope="0.00"/>
        <vehicle id="veh4" x="-154.86" y="-1.60" angle="90.00" type="CarA" speed="13.19" pos="45.14" lane="D4_1" slope="0.00"/>
        <vehicle id="veh5" x="-186.12" y="-4.80" angle="90.00" type="CarA" speed="5.33" pos="13.88" lane="D4_0" slope="0.00"/>
        <vehicle id="veh6" x="321.56" y="1.60" angle="270.00" type="CarA" speed="13.59" pos="78.44" lane="D6_1" slope="0.00"/>
        <vehicle id="veh7" x="359.41" y="4.80" angle="270.00" type="CarA" speed="11.44" pos="40.59" lane="D6_0" slope="0.00"/>
        <vehicle id="veh8" x="389.15" y="4.80" angle="270.00" type="CarA" speed="4.18" pos="10.85" lane="D6_0" slope="0.00"/>
        <vehicle id="veh9" x="332.06" y="104.80" angle="270.00" type="CarA" speed="11.37" pos="67.94" lane="D8_0" slope="0.00"/>
    </timestep>
    <timestep time="109.00">
        <vehicle id="veh0" x="-103.98" y="95.20" angle="90.06" type="CarA" speed="14.58" pos="96.03" lane="D2_0" slope="0.00"/>
        <vehicle id="veh1" x="-150.44" y="95.25" angle="90.06" type="CarA" speed="12.06" pos="49.56" lane="D2_0" slope="0.00"/>
        <vehicle id="veh10" x="349.76" y="101.60" angle="270.00" type="CarA" speed="12.37" pos="50.24" lane="D8_1" slope="0.00"/>
        <vehicle id="veh11" x="382.92" y="104.80" angle="270.00" type="CarA" speed="5.65" pos="17.08" lane="D8_0" slope="0.00"/>
        <vehicle id="veh12" x="-192.40" y="95.29" angle="90.06" type="CarB" speed="0.00" pos="7.60" lane="D2_0" slope="0.00"/>
        <vehicle id="veh15" x="-192.40" y="-4.80" angle="90.00" type="CarB" speed="0.00" pos="7.60" lane="D4_0" slope="0.00"/>
        <vehicle id="veh18" x="392.40" y="4.80" angle="270.00" type="CarB" speed="0.00" pos="7.60" lane="D6_0" slope="0.00"/>
        <vehicle id="veh2" x="-181.06" y="95.28" angle="90.06" type="CarA" speed="6.95" pos="18.94" lane="D2_0" slope="0.00"/>
        <vehicle id="veh3" x="-99.61" y="-4.80" angle="90.00" type="CarA" speed="13.98" pos="0.39" lane="L4_0" slope="0.00"/>
        <vehicle id="veh4" x="-140.66" y="-1.60" angle="90.00" type="CarA" speed="14.20" pos="59.34" lane="D4_1" slope="0.00"/>
        <vehicle id="veh5" x="-178.79" y="-4.80" angle="90.00" type="CarA" speed="7.34" pos="21.21" lane="D4_0" slope="0.00"/>
        <vehicle id="veh6" x="307.62" y="1.60" angle="270.00" type="CarA" speed="13.94" pos="92.38" lane="D6_1" slope="0.00"/>
        <vehicle id="veh7" x="347.24" y="4.80" angle="270.00" type="CarA" speed="12.17" pos="52.76" lane="D6_0" slope="0.00"/>
        <vehicle id="veh8" x="382.45" y="4.80" angle="270.00" type="CarA" speed="6.70" pos="17.55" lane="D6_0" slope="0.00"/>
        <vehicle id="veh9" x="320.21" y="104.80" angle="270.00" type="CarA" speed="11.85" pos="79.79" lane="D8_0" slope="0.00"/>
    </timestep>
    <timestep time="110.00">
        <vehicle id="veh0" x="-89.79" y="95.20" angle="90.00" type="CarA" speed="14.19" pos="10.06" lane="L2_0" slope="0.00"/>
        <vehicle id="veh1" x="-137.71" y="95.24" angle="90.06" type="CarA" speed="12.74" pos="62.30" lane="D2_0" slope="0.00"/>
        <vehicle id="veh10" x="335.21" y="101.60" angle="270.00" type="CarA" speed="14.55" pos="64.79" lane="D8_1" slope="0.00"/>
        <vehicle id="veh11" x="375.75" y="104.80" angle="270.00" type="CarA" speed="7.17" pos="24.25" lane="D8_0" slope="0.00"/>
        <vehicle id="veh12" x="-190.63" y="95.29" angle="90.06" type="CarB" speed="1.77" pos="9.37" lane="D2_0" slope="0.00"/>
        <vehicle id="veh15" x="-190.88" y="-4.80" angle="90.00" type="CarB" speed="1.52" pos="9.12" lane="D4_0" slope="0.00"/>
        <vehicle id="veh18" x="390.95" y="4.80" angle="270.00" type="CarB" speed="1.45" pos="9.05" lane="D6_0" slope="0.00"/>
        <vehicle id="veh2" x="-172.01" y="95.27" angle="90.06" type="CarA" speed="9.05" pos="27.99" lane="D2_0" slope="0.00"/>
        <vehicle id="veh3" x="-84.87" y="-4.80" angle="90.00" type="CarA" speed="14.74" pos="15.13" lane="L4_0" slope="0.00"/>
        <vehicle id="veh4" x="-126.90" y="-1.60" angle="90.00" type="CarA" speed="13.75" pos="73.10" lane="D4_1" slope="0.00"/>
        <vehicle id="veh5" x="-168.67" y="-4.80" angle="90.00" type="CarA" speed="10.12" pos="31.33" lane="D4_0" slope="0.00"/>
        <vehicle id="veh6" x="294.44" y="1.60" angle="270.00" type="CarA" speed="13.27" pos="5.56" lane="L6_1" slope="0.00"/>
        <vehicle id="veh7" x="335.34" y="4.80" angle="270.00" type="CarA" speed="11.89" pos="64.66" lane="D6_0" slope="0.00"/>
        <vehicle id="veh8" x="373.47" y="4.80" angle="270.00" type="CarA" speed="8.98" pos="26.53" lane="D6_0" slope="0.00"/>
        <vehicle id="veh9" x="309.22" y="104.80" angle="270.00" type="CarA" speed="10.99" pos="90.78" lane="D8_0" slope="0.00"/>
    </timestep>
    <timestep time="111.00">
        <vehicle id="veh0" x="-76.04" y="95.20" angle="90.00" type="CarA" speed="13.75" pos="23.81" lane="L2_0" slope="0.00"/>
        <vehicle id="veh1" x="-124.80" y="95.22" angle="90.06" type="CarA" speed="12.91" pos="75.21" lane="D2_0" slope="0.00"/>
        <vehicle id="veh10" x="320.09" y="101.60" angle="270.00" type="CarA" speed="15.12" pos="79.91" lane="D8_1" slope="0.00"/>
        <vehicle id="veh11" x="366.24" y="104.80" angle="270.00" type="CarA" speed="9.51" pos="33.76" lane="D8_0" slope="0.00"/>
        <vehicle id="veh12" x="-187.73" y="95.29" angle="90.06" type="CarB" speed="2.90" pos="12.27" lane="D2_0" slope="0.00"/>
        <vehicle id="veh15" x="-187.68" y="-4.80" angle="90.00" type="CarB" speed="3.20" pos="12.32" lane="D4_0" slope="0.00"/>
        <vehicle id="veh18" x="388.27" y="4.80" angle="270.00" type="CarB" speed="2.67" pos="11.73" lane="D6_0" slope="0.00"/>
        <vehicle id="veh2" x="-161.22" y="95.26" angle="90.06" type="CarA" speed="10.79" pos="38.78" lane="D2_0" slope="0.00"/>
        <vehicle id="veh3" x="-71.17" y="-4.80" angle="90.00" type="CarA" speed="13.70" pos="28.83" lane="L4_0" slope="0.00"/>
        <vehicle id="veh4" x="-114.05" y="-1.60" angle="90.00" type="CarA" speed="12.86" pos="85.95" lane="D4_1" slope="0.00"/>
        <vehicle id="veh5" x="-157.60" y="-1.60" angle="90.00" type="CarA" speed="11.07" pos="42.40" lane="D4_1" slope="0.00"/>
        <vehicle id="veh6" x="280.03" y="1.60" angle="270.00" type="CarA" speed="14.42" pos="19.97" lane="L6_1" slope="0.00"/>
        <vehicle id="veh7" x="324.49" y="4.80" angle="270.00" type="CarA" speed="10.86" pos="75.51" lane="D6_0" slope="0.00"/>
        <vehicle id="veh8" x="362.47" y="4.80" angle="270.00" type="CarA" speed="11.00" pos="37.53" lane="D6_0" slope="0.00"/>
        <vehicle id="veh9" x="298.49" y="104.80" angle="270.00" type="CarA" speed="10.82" pos="1.51" lane="L8_0" slope="0.00"/>
    </timestep>
    <timestep time="112.00">
        <vehicle id="veh0" x="-61.76" y="95.20" angle="90.00" type="CarA" speed="14.28" pos="38.09" lane="L2_0" slope="0.00"/>
        <vehicle id="veh1" x="-113.24" y="95.21" angle="90.06" type="CarA" speed="11.56" pos="86.77" lane="D2_0" slope="0.00"/>
        <vehicle id="veh10" x="306.36" y="101.60" angle="270.00" type="CarA" speed="13.72" pos="93.64" lane="D8_1" slope="0.00"/>
        <vehicle id="veh11" x="354.71" y="101.60" angle="270.00" type="CarA" speed="11.53" pos="45.29" lane="D8_1" slope="0.00"/>
        <vehicle id="veh12" x="-183.80" y="95.28" angle="90.06" type="CarB" speed="3.93" pos="16.21" lane="D2_0" slope="0.00"/>
        <vehicle id="veh15" x="-183.34" y="-4.80" angle="90.00" type="CarB" speed="4.34" pos="16.66" lane="D4_0" slope="0.00"/>
        <vehicle id="veh18" x="383.85" y="4.80" angle="270.00" type="CarB" speed="4.43" pos="16.15" lane="D6_0" slope="0.00"/>
        <vehicle id="veh2" x="-148.55" y="95.25" angle="90.06" type="CarA" speed="12.68" pos="51.46" lane="D2_0" slope="0.00"/>
        <vehicle id="veh3" x="-56.30" y="-4.80" angle="90.00" type="CarA" speed="14.87" pos="43.70" lane="L4_0" slope="0.00"/>
        <vehicle id="veh4" x="-100.86" y="-1.60" angle="90.00" type="CarA" speed="13.19" pos="99.14" lane="D4_1" slope="0.00"/>
        <vehicle id="veh5" x="-147.48" y="-1.60" angle="90.00" type="CarA" speed="10.12" pos="52.52" lane="D4_1" slope="0.00"/>
        <vehicle id="veh6" x="266.02" y="1.60" angle="270.00" type="CarA" speed="14.01" pos="33.98" lane="L6_1" slope="0.00"/>
        <vehicle id="veh7" x="313.47" y="4.80" angle="270.00" type="CarA" speed="11.02" pos="86.53" lane="D6_0" slope="0.00"/>
        <vehicle id="veh8" x="349.75" y="4.80" angle="270.00" type="CarA" speed="12.72" pos="50.25" lane="D6_0" slope="0.00"/>
        <vehicle id="veh9" x="287.61" y="104.80" angle="270.00" type="CarA" speed="10.88" pos="12.39" lane="L8_0" slope="0.00"/>
    </timestep>
    <timestep time="113.00">
        <vehicle id="veh0" x="-48.10" y="95.20" angle="90.00" type="CarA" speed="13.66" pos="51.75" lane="L2_0" slope="0.00"/>
        <vehicle id="veh1" x="-100.67" y="95.20" angle="90.06" type="CarA" speed="12.58" pos="99.34" lane="D2_0" slope="0.00"/>
        <vehicle id="veh10" x="291.78" y="101.60" angle="270.00" type="CarA" speed="14.69" pos="8.22" lane="L8_1" slope="0.00"/>
        <vehicle id="veh11" x="340.84" y="101.60" angle="270.00" type="CarA" speed="13.87" pos="59.16" lane="D8_1" slope="0.00"/>
        <vehicle id="veh12" x="-178.04" y="95.28" angle="90.06" type="CarB" speed="5.76" pos="21.96" lane="D2_0" slope="0.00"/>
        <vehicle id="veh13" x="-192.40" y="95.29" angle="90.06" type="CarB" speed="0.00" pos="7.60" lane="D2_0" slope="0.00"/>
        <vehicle id="veh15" x="-177.34" y="-4.80" angle="90.00" type="CarB" speed="6.00" pos="22.66" lane="D4_0" slope="0.00"/>
        <vehicle id="veh16" x="-192.40" y="-4.80" angle="90.00" type="CarB" speed="0.00" pos="7.60" lane="D4_0" slope="0.00"/>
        <vehicle id="veh18" x="377.47" y="4.80" angle="270.00" type="CarB" speed="6.37" pos="22.53" lane="D6_0" slope="0.00"/>
        <vehicle id="veh2" x="-135.04" y="95.23" angle="90.06" type="CarA" speed="13.51" pos="64.96" lane="D2_0" slope="0.00"/>
        <vehicle id="veh3" x="-42.12" y="-4.80" angle="90.00" type="CarA" speed="14.19" pos="57.88" lane="L4_0" slope="0.00"/>
        <vehicle id="veh4" x="-87.22" y="-1.60" angle="90.00" type="CarA" speed="13.74" pos="12.78" lane="L4_1" slope="0.00"/>
        <vehicle id="veh5" x="-136.48" y="-1.60" angle="90.00" type="CarA" speed="11.00" pos="63.52" lane="D4_1" slope="0.00"/>
        <vehicle id="veh6" x="252.90" y="1.60" angle="270.00" type="CarA" speed="13.11" pos="47.10" lane="L6_1" slope="0.00"/>
        <vehicle id="veh7" x="302.11" y="1.60" angle="270.00" type="CarA" speed="11.35" pos="97.89" lane="D6_1" slope="0.00"/>
        <vehicle id="veh8" x="337.89" y="4.80" angle="270.00" type="CarA" speed="11.85" pos="62.11" lane="D6_0" slope="0.00"/>
        <vehicle id="veh9" x="276.18" y="104.80" angle="270.00" type="CarA" speed="11.43" pos="23.82" lane="L8_0" slope="0.00"/>
    </timestep>
    <timestep time="114.00">
        <vehicle id="veh0" x="-34.00" y="95.20" angle="90.00" type="CarA" speed="14.10" pos="65.85" lane="L2_0" slope="0.00"/>
        <vehicle id="veh1" x="-88.73" y="95.20" angle="90.00" type="CarA" speed="11.93" pos="11.12" lane="L2_0" slope="0.00"/>
        <vehicle id="veh10" x="277.30" y="101.60" angle="270.00" type="CarA" speed="14.47" pos="22.70" lane="L8_1" slope="0.00"/>
        <vehicle id="veh11" x="327.68" y="101.60" angle="270.00" type="CarA" speed="13.15" pos="72.32" lane="D8_1" slope="0.00"/>
        <vehicle id="veh12" x="-170.82" y="95.27" angle="90.06" type="CarB" speed="7.22" pos="29.18" lane="D2_0" slope="0.00"/>
        <vehicle id="veh13" x="-190.55" y="95.29" angle="90.06" type="CarB" speed="1.85" pos="9.45" lane="D2_0" slope="0.00"/>
        <vehicle id="veh15" x="-170.00" y="-4.80" angle="90.00" type="CarB" speed="7.34" pos="30.00" lane="D4_0" slope="0.00"/>
        <vehicle id="veh16" x="-190.67" y="-4.80" angle="90.00" type="CarB" speed="1.73" pos="9.33" lane="D4_0" slope="0.00"/>
        <vehicle id="veh18" x="369.18" y="4.80" angle="270.00" type="CarB" speed="8.30" pos="30.82" lane="D6_0" slope="0.00"/>
        <vehicle id="veh2" x="-122.34" y="95.22" angle="90.06" type="CarA" speed="12.70" pos="77.66" lane="D2_0" slope="0.00"/>
        <vehicle id="veh3" x="-27.42" y="-4.80" angle="90.00" type="CarA" speed="14.69" pos="72.58" lane="L4_0" slope="0.00"/>
        <vehicle id="veh4" x="-73.57" y="-1.60" angle="90.00" type="CarA" speed="13.65" pos="26.43" lane="L4_1" slope="0.00"/>
        <vehicle id="veh5" x="-126.39" y="-1.60" angle="90.00" type="CarA" speed="10.09" pos="73.61" lane="D4_1" slope="0.00"/>
        <vehicle id="veh6" x="238.63" y="1.60" angle="270.00" type="CarA" speed="14.28" pos="61.37" lane="L6_1" slope="0.00"/>
        <vehicle id="veh7" x="289.96" y="1.60" angle="270.00" type="CarA" speed="12.26" pos="10.04" lane="L6_1" slope="0.00"/>
        <vehicle id="veh8" x="325.72" y="4.80" angle="270.00" type="CarA" speed="12.17" pos="74.28" lane="D6_0" slope="0.00"/>
        <vehicle id="veh9" x="265.60" y="104.80" angle="270.00" type="CarA" speed="10.58" pos="34.40" lane="L8_0" slope="0.00"/>
    </timestep>
    <timestep time="115.00">
        <vehicle id="veh0" x="-20.21" y="95.20" angle="90.00" type="CarA" speed="13.79" pos="79.64" lane="L2_0" slope="0.00"/>
        <vehicle id="veh1" x="-77.01" y="95.20" angle="90.00" type="CarA" speed="11.72" pos="22.84" lane="L2_0" slope="0.00"/>
        <vehicle id="veh10" x="263.05" y="101.60" angle="270.00" type="CarA" speed="14.25" pos="36.95" lane="L8_1" slope="0.00"/>
        <vehicle id="veh11" x="314.08" y="101.60" angle="270.00" type="CarA" speed="13.60" pos="85.92" lane="D8_1" slope="0.00"/>
        <vehicle id="veh12" x="-162.30" y="95.26" angle="90.06" type="CarB" speed="8.52" pos="37.70" lane="D2_0" slope="0.00"/>
        <vehicle id="veh13" x="-187.05" y="95.29" angle="90.06" type="CarB" speed="3.50" pos="12.95" lane="D2_0" slope="0.00"/>
        <vehicle id="veh15" x="-160.96" y="-4.80" angle="90.00" type="CarB" speed="9.04" pos="39.04" lane="D4_0" slope="0.00"/>
        <vehicle id="veh16" x="-187.29" y="-4.80" angle="90.00" type="CarB" speed="3.37" pos="12.71" lane="D4_0" slope="0.00"/>
        <vehicle id="veh18" x="359.35" y="4.80" angle="270.00" type="CarB" speed="9.83" pos="40.65" lane="D6_0" slope="0.00"/>
        <vehicle id="veh2" x="-108.82" y="95.21" angle="90.06" type="CarA" speed="13.53" pos="91.19" lane="D2_0" slope="0.00"/>
        <vehicle id="veh3" x="-12.96" y="-4.80" angle="90.00" type="CarA" speed="14.46" pos="87.04" lane="L4_0" slope="0.00"/>
        <vehicle id="veh4" x="-60.00" y="-1.60" angle="90.00" type="CarA" speed="13.57" pos="40.00" lane="L4_1" slope="0.00"/>
        <vehicle id="veh5" x="-115.82" y="-1.60" angle="90.00" type="CarA" speed="10.57" pos="84.18" lane="D4_1" slope="0.00"/>
        <vehicle id="veh6" x="225.32" y="1.60" angle="270.00" type="CarA" speed="13.31" pos="74.68" lane="L6_1" slope="0.00"/>
        <vehicle id="veh7" x="278.58" y="1.60" angle="270.00" type="CarA" speed="11.38" pos="21.42" lane="L6_1" slope="0.00"/>
        <vehicle id="veh8" x="313.39" y="4.80" angle="270.00" type="CarA" speed="12.33" pos="86.61" lane="D6_0" slope="0.00"/>
        <vehicle id="veh9" x="255.07" y="104.80" angle="270.00" type="CarA" speed="10.54" pos="44.93" lane="L8_0" slope="0.00"/>
    </timestep>
    <timestep time="116.00">
        <vehicle id="veh0" x="-6.44" y="95.20" angle="90.00" type="CarA" speed="13.77" pos="93.41" lane="L2_0" slope="0.00"/>
        <vehicle id="veh1" x="-64.72" y="95.20" angle="90.00" type="CarA" speed="12.29" pos="35.13" lane="L2_0" slope="0.00"/>
        <vehicle id="veh10" x="249.13" y="101.60" angle="270.00" type="CarA" speed="13.92" pos="50.87" lane="L8_1" slope="0.00"/>
        <vehicle id="veh11" x="301.08" y="101.60" angle="270.00" type="CarA" speed="13.00" pos="98.92" lane="D8_1" slope="0.00"/>
        <vehicle id="veh12" x="-152.44" y="95.25" angle="90.06" type="CarB" speed="9.86" pos="47.56" lane="D2_0" slope="0.00"/>
        <vehicle id="veh13" x="-182.36" y="95.28" angle="90.06" type="CarB" speed="4.69" pos="17.64" lane="D2_0" slope="0.00"/>
        <vehicle id="veh14" x="-192.40" y="95.29" angle="90.06" type="CarB" speed="0.00" pos="7.60" lane="D2_0" slope="0.00"/>
        <vehicle id="veh15" x="-150.09" y="-4.80" angle="90.00" type="CarB" speed="10.87" pos="49.91" lane="D4_0" slope="0.00"/>
        <vehicle id="veh16" x="-181.99" y="-4.80" angle="90.00" type="CarB" speed="5.30" pos="18.01" lane="D4_0" slope="0.00"/>
        <vehicle id="veh17" x="-192.40" y="-4.80" angle="90.00" type="CarB" speed="0.00" pos="7.60" lane="D4_0" slope="0.00"/>
        <vehicle id="veh18" x="348.20" y="1.60" angle="270.00" type="CarB" speed="11.14" pos="51.80" lane="D6_1" slope="0.00"/>
        <vehicle id="veh2" x="-95.47" y="95.20" angle="90.00" type="CarA" speed="13.35" pos="4.38" lane="L2_0" slope="0.00"/>
        <vehicle id="veh3" x="0.39" y="-6.68" angle="111.98" type="CarA" speed="13.70" pos="4.73" lane=":2_3_0" slope="0.00"/>